V -t * -v 1.0a5 -a 0
A -t * -n 1 -p 0 -o 0x7fffffff -c 30 -a 1
A -t * -h 1 -m 1073741823 -s 0
c -t * -i 1 -n Blue
c -t * -i 2 -n Red
n -t * -a 0 -s 0 -S UP -v circle -c black -i black
n -t * -a 1 -s 1 -S UP -v circle -c black -i black
n -t * -a 2 -s 2 -S UP -v circle -c black -i black
n -t * -a 3 -s 3 -S UP -v circle -c black -i black
l -t * -s 0 -d 1 -S UP -r 1500000 -D 0.01 -c black -o right-down
l -t * -s 1 -d 2 -S UP -r 1500000 -D 0.01 -c black -o left-down
l -t * -s 2 -d 3 -S UP -r 3000000 -D 0.0050000000000000001 -c black -o left-up
l -t * -s 3 -d 0 -S UP -r 1500000 -D 0.01 -c black -o right-up
+ -t 0.5 -s 0 -d 1 -p tcp -e 40 -c 1 -i 0 -a 1 -x {0.0 1.0 0 ------- null}
- -t 0.5 -s 0 -d 1 -p tcp -e 40 -c 1 -i 0 -a 1 -x {0.0 1.0 0 ------- null}
h -t 0.5 -s 0 -d 1 -p tcp -e 40 -c 1 -i 0 -a 1 -x {0.0 1.0 -1 ------- null}
r -t 0.510213333333333 -s 0 -d 1 -p tcp -e 40 -c 1 -i 0 -a 1 -x {0.0 1.0 0 ------- null}
+ -t 0.510213333333333 -s 1 -d 0 -p ack -e 40 -c 1 -i 1 -a 1 -x {1.0 0.0 0 ------- null}
- -t 0.510213333333333 -s 1 -d 0 -p ack -e 40 -c 1 -i 1 -a 1 -x {1.0 0.0 0 ------- null}
h -t 0.510213333333333 -s 1 -d 0 -p ack -e 40 -c 1 -i 1 -a 1 -x {1.0 0.0 -1 ------- null}
r -t 0.520426666666667 -s 1 -d 0 -p ack -e 40 -c 1 -i 1 -a 1 -x {1.0 0.0 0 ------- null}
+ -t 0.520426666666667 -s 0 -d 1 -p tcp -e 1040 -c 1 -i 2 -a 1 -x {0.0 1.0 1 ------- null}
- -t 0.520426666666667 -s 0 -d 1 -p tcp -e 1040 -c 1 -i 2 -a 1 -x {0.0 1.0 1 ------- null}
h -t 0.520426666666667 -s 0 -d 1 -p tcp -e 1040 -c 1 -i 2 -a 1 -x {0.0 1.0 -1 ------- null}
+ -t 0.520426666666667 -s 0 -d 1 -p tcp -e 1040 -c 1 -i 3 -a 1 -x {0.0 1.0 2 ------- null}
- -t 0.525973333333333 -s 0 -d 1 -p tcp -e 1040 -c 1 -i 3 -a 1 -x {0.0 1.0 2 ------- null}
h -t 0.525973333333333 -s 0 -d 1 -p tcp -e 1040 -c 1 -i 3 -a 1 -x {0.0 1.0 -1 ------- null}
r -t 0.535973333333333 -s 0 -d 1 -p tcp -e 1040 -c 1 -i 2 -a 1 -x {0.0 1.0 1 ------- null}
+ -t 0.535973333333333 -s 1 -d 0 -p ack -e 40 -c 1 -i 4 -a 1 -x {1.0 0.0 1 ------- null}
- -t 0.535973333333333 -s 1 -d 0 -p ack -e 40 -c 1 -i 4 -a 1 -x {1.0 0.0 1 ------- null}
h -t 0.535973333333333 -s 1 -d 0 -p ack -e 40 -c 1 -i 4 -a 1 -x {1.0 0.0 -1 ------- null}
r -t 0.54152 -s 0 -d 1 -p tcp -e 1040 -c 1 -i 3 -a 1 -x {0.0 1.0 2 ------- null}
+ -t 0.54152 -s 1 -d 0 -p ack -e 40 -c 1 -i 5 -a 1 -x {1.0 0.0 2 ------- null}
- -t 0.54152 -s 1 -d 0 -p ack -e 40 -c 1 -i 5 -a 1 -x {1.0 0.0 2 ------- null}
h -t 0.54152 -s 1 -d 0 -p ack -e 40 -c 1 -i 5 -a 1 -x {1.0 0.0 -1 ------- null}
r -t 0.546186666666667 -s 1 -d 0 -p ack -e 40 -c 1 -i 4 -a 1 -x {1.0 0.0 1 ------- null}
+ -t 0.546186666666667 -s 0 -d 1 -p tcp -e 1040 -c 1 -i 6 -a 1 -x {0.0 1.0 3 ------- null}
- -t 0.546186666666667 -s 0 -d 1 -p tcp -e 1040 -c 1 -i 6 -a 1 -x {0.0 1.0 3 ------- null}
h -t 0.546186666666667 -s 0 -d 1 -p tcp -e 1040 -c 1 -i 6 -a 1 -x {0.0 1.0 -1 ------- null}
+ -t 0.546186666666667 -s 0 -d 1 -p tcp -e 1040 -c 1 -i 7 -a 1 -x {0.0 1.0 4 ------- null}
r -t 0.551733333333333 -s 1 -d 0 -p ack -e 40 -c 1 -i 5 -a 1 -x {1.0 0.0 2 ------- null}
+ -t 0.551733333333333 -s 0 -d 1 -p tcp -e 1040 -c 1 -i 8 -a 1 -x {0.0 1.0 5 ------- null}
+ -t 0.551733333333333 -s 0 -d 1 -p tcp -e 1040 -c 1 -i 9 -a 1 -x {0.0 1.0 6 ------- null}
- -t 0.551733333333333 -s 0 -d 1 -p tcp -e 1040 -c 1 -i 7 -a 1 -x {0.0 1.0 4 ------- null}
h -t 0.551733333333333 -s 0 -d 1 -p tcp -e 1040 -c 1 -i 7 -a 1 -x {0.0 1.0 -1 ------- null}
- -t 0.55728 -s 0 -d 1 -p tcp -e 1040 -c 1 -i 8 -a 1 -x {0.0 1.0 5 ------- null}
h -t 0.55728 -s 0 -d 1 -p tcp -e 1040 -c 1 -i 8 -a 1 -x {0.0 1.0 -1 ------- null}
r -t 0.561733333333333 -s 0 -d 1 -p tcp -e 1040 -c 1 -i 6 -a 1 -x {0.0 1.0 3 ------- null}
+ -t 0.561733333333333 -s 1 -d 0 -p ack -e 40 -c 1 -i 10 -a 1 -x {1.0 0.0 3 ------- null}
- -t 0.561733333333333 -s 1 -d 0 -p ack -e 40 -c 1 -i 10 -a 1 -x {1.0 0.0 3 ------- null}
h -t 0.561733333333333 -s 1 -d 0 -p ack -e 40 -c 1 -i 10 -a 1 -x {1.0 0.0 -1 ------- null}
- -t 0.562826666666667 -s 0 -d 1 -p tcp -e 1040 -c 1 -i 9 -a 1 -x {0.0 1.0 6 ------- null}
h -t 0.562826666666667 -s 0 -d 1 -p tcp -e 1040 -c 1 -i 9 -a 1 -x {0.0 1.0 -1 ------- null}
r -t 0.56728 -s 0 -d 1 -p tcp -e 1040 -c 1 -i 7 -a 1 -x {0.0 1.0 4 ------- null}
+ -t 0.56728 -s 1 -d 0 -p ack -e 40 -c 1 -i 11 -a 1 -x {1.0 0.0 4 ------- null}
- -t 0.56728 -s 1 -d 0 -p ack -e 40 -c 1 -i 11 -a 1 -x {1.0 0.0 4 ------- null}
h -t 0.56728 -s 1 -d 0 -p ack -e 40 -c 1 -i 11 -a 1 -x {1.0 0.0 -1 ------- null}
r -t 0.571946666666667 -s 1 -d 0 -p ack -e 40 -c 1 -i 10 -a 1 -x {1.0 0.0 3 ------- null}
+ -t 0.571946666666667 -s 0 -d 1 -p tcp -e 1040 -c 1 -i 12 -a 1 -x {0.0 1.0 7 ------- null}
- -t 0.571946666666667 -s 0 -d 1 -p tcp -e 1040 -c 1 -i 12 -a 1 -x {0.0 1.0 7 ------- null}
h -t 0.571946666666667 -s 0 -d 1 -p tcp -e 1040 -c 1 -i 12 -a 1 -x {0.0 1.0 -1 ------- null}
+ -t 0.571946666666667 -s 0 -d 1 -p tcp -e 1040 -c 1 -i 13 -a 1 -x {0.0 1.0 8 ------- null}
r -t 0.572826666666667 -s 0 -d 1 -p tcp -e 1040 -c 1 -i 8 -a 1 -x {0.0 1.0 5 ------- null}
+ -t 0.572826666666667 -s 1 -d 0 -p ack -e 40 -c 1 -i 14 -a 1 -x {1.0 0.0 5 ------- null}
- -t 0.572826666666667 -s 1 -d 0 -p ack -e 40 -c 1 -i 14 -a 1 -x {1.0 0.0 5 ------- null}
h -t 0.572826666666667 -s 1 -d 0 -p ack -e 40 -c 1 -i 14 -a 1 -x {1.0 0.0 -1 ------- null}
r -t 0.577493333333333 -s 1 -d 0 -p ack -e 40 -c 1 -i 11 -a 1 -x {1.0 0.0 4 ------- null}
+ -t 0.577493333333333 -s 0 -d 1 -p tcp -e 1040 -c 1 -i 15 -a 1 -x {0.0 1.0 9 ------- null}
+ -t 0.577493333333333 -s 0 -d 1 -p tcp -e 1040 -c 1 -i 16 -a 1 -x {0.0 1.0 10 ------- null}
- -t 0.577493333333333 -s 0 -d 1 -p tcp -e 1040 -c 1 -i 13 -a 1 -x {0.0 1.0 8 ------- null}
h -t 0.577493333333333 -s 0 -d 1 -p tcp -e 1040 -c 1 -i 13 -a 1 -x {0.0 1.0 -1 ------- null}
r -t 0.578373333333333 -s 0 -d 1 -p tcp -e 1040 -c 1 -i 9 -a 1 -x {0.0 1.0 6 ------- null}
+ -t 0.578373333333333 -s 1 -d 0 -p ack -e 40 -c 1 -i 17 -a 1 -x {1.0 0.0 6 ------- null}
- -t 0.578373333333333 -s 1 -d 0 -p ack -e 40 -c 1 -i 17 -a 1 -x {1.0 0.0 6 ------- null}
h -t 0.578373333333333 -s 1 -d 0 -p ack -e 40 -c 1 -i 17 -a 1 -x {1.0 0.0 -1 ------- null}
r -t 0.58304 -s 1 -d 0 -p ack -e 40 -c 1 -i 14 -a 1 -x {1.0 0.0 5 ------- null}
+ -t 0.58304 -s 0 -d 1 -p tcp -e 1040 -c 1 -i 18 -a 1 -x {0.0 1.0 11 ------- null}
+ -t 0.58304 -s 0 -d 1 -p tcp -e 1040 -c 1 -i 19 -a 1 -x {0.0 1.0 12 ------- null}
- -t 0.58304 -s 0 -d 1 -p tcp -e 1040 -c 1 -i 15 -a 1 -x {0.0 1.0 9 ------- null}
h -t 0.58304 -s 0 -d 1 -p tcp -e 1040 -c 1 -i 15 -a 1 -x {0.0 1.0 -1 ------- null}
r -t 0.587493333333333 -s 0 -d 1 -p tcp -e 1040 -c 1 -i 12 -a 1 -x {0.0 1.0 7 ------- null}
+ -t 0.587493333333333 -s 1 -d 0 -p ack -e 40 -c 1 -i 20 -a 1 -x {1.0 0.0 7 ------- null}
- -t 0.587493333333333 -s 1 -d 0 -p ack -e 40 -c 1 -i 20 -a 1 -x {1.0 0.0 7 ------- null}
h -t 0.587493333333333 -s 1 -d 0 -p ack -e 40 -c 1 -i 20 -a 1 -x {1.0 0.0 -1 ------- null}
r -t 0.588586666666667 -s 1 -d 0 -p ack -e 40 -c 1 -i 17 -a 1 -x {1.0 0.0 6 ------- null}
+ -t 0.588586666666667 -s 0 -d 1 -p tcp -e 1040 -c 1 -i 21 -a 1 -x {0.0 1.0 13 ------- null}
+ -t 0.588586666666667 -s 0 -d 1 -p tcp -e 1040 -c 1 -i 22 -a 1 -x {0.0 1.0 14 ------- null}
- -t 0.588586666666667 -s 0 -d 1 -p tcp -e 1040 -c 1 -i 16 -a 1 -x {0.0 1.0 10 ------- null}
h -t 0.588586666666667 -s 0 -d 1 -p tcp -e 1040 -c 1 -i 16 -a 1 -x {0.0 1.0 -1 ------- null}
r -t 0.59304 -s 0 -d 1 -p tcp -e 1040 -c 1 -i 13 -a 1 -x {0.0 1.0 8 ------- null}
+ -t 0.59304 -s 1 -d 0 -p ack -e 40 -c 1 -i 23 -a 1 -x {1.0 0.0 8 ------- null}
- -t 0.59304 -s 1 -d 0 -p ack -e 40 -c 1 -i 23 -a 1 -x {1.0 0.0 8 ------- null}
h -t 0.59304 -s 1 -d 0 -p ack -e 40 -c 1 -i 23 -a 1 -x {1.0 0.0 -1 ------- null}
- -t 0.594133333333333 -s 0 -d 1 -p tcp -e 1040 -c 1 -i 18 -a 1 -x {0.0 1.0 11 ------- null}
h -t 0.594133333333333 -s 0 -d 1 -p tcp -e 1040 -c 1 -i 18 -a 1 -x {0.0 1.0 -1 ------- null}
r -t 0.597706666666667 -s 1 -d 0 -p ack -e 40 -c 1 -i 20 -a 1 -x {1.0 0.0 7 ------- null}
+ -t 0.597706666666667 -s 0 -d 1 -p tcp -e 1040 -c 1 -i 24 -a 1 -x {0.0 1.0 15 ------- null}
+ -t 0.597706666666667 -s 0 -d 1 -p tcp -e 1040 -c 1 -i 25 -a 1 -x {0.0 1.0 16 ------- null}
r -t 0.598586666666667 -s 0 -d 1 -p tcp -e 1040 -c 1 -i 15 -a 1 -x {0.0 1.0 9 ------- null}
+ -t 0.598586666666667 -s 1 -d 0 -p ack -e 40 -c 1 -i 26 -a 1 -x {1.0 0.0 9 ------- null}
- -t 0.598586666666667 -s 1 -d 0 -p ack -e 40 -c 1 -i 26 -a 1 -x {1.0 0.0 9 ------- null}
h -t 0.598586666666667 -s 1 -d 0 -p ack -e 40 -c 1 -i 26 -a 1 -x {1.0 0.0 -1 ------- null}
- -t 0.59968 -s 0 -d 1 -p tcp -e 1040 -c 1 -i 19 -a 1 -x {0.0 1.0 12 ------- null}
h -t 0.59968 -s 0 -d 1 -p tcp -e 1040 -c 1 -i 19 -a 1 -x {0.0 1.0 -1 ------- null}
r -t 0.603253333333333 -s 1 -d 0 -p ack -e 40 -c 1 -i 23 -a 1 -x {1.0 0.0 8 ------- null}
+ -t 0.603253333333333 -s 0 -d 1 -p tcp -e 1040 -c 1 -i 27 -a 1 -x {0.0 1.0 17 ------- null}
+ -t 0.603253333333333 -s 0 -d 1 -p tcp -e 1040 -c 1 -i 28 -a 1 -x {0.0 1.0 18 ------- null}
r -t 0.604133333333333 -s 0 -d 1 -p tcp -e 1040 -c 1 -i 16 -a 1 -x {0.0 1.0 10 ------- null}
+ -t 0.604133333333333 -s 1 -d 0 -p ack -e 40 -c 1 -i 29 -a 1 -x {1.0 0.0 10 ------- null}
- -t 0.604133333333333 -s 1 -d 0 -p ack -e 40 -c 1 -i 29 -a 1 -x {1.0 0.0 10 ------- null}
h -t 0.604133333333333 -s 1 -d 0 -p ack -e 40 -c 1 -i 29 -a 1 -x {1.0 0.0 -1 ------- null}
- -t 0.605226666666667 -s 0 -d 1 -p tcp -e 1040 -c 1 -i 21 -a 1 -x {0.0 1.0 13 ------- null}
h -t 0.605226666666667 -s 0 -d 1 -p tcp -e 1040 -c 1 -i 21 -a 1 -x {0.0 1.0 -1 ------- null}
r -t 0.6088 -s 1 -d 0 -p ack -e 40 -c 1 -i 26 -a 1 -x {1.0 0.0 9 ------- null}
+ -t 0.6088 -s 0 -d 1 -p tcp -e 1040 -c 1 -i 30 -a 1 -x {0.0 1.0 19 ------- null}
+ -t 0.6088 -s 0 -d 1 -p tcp -e 1040 -c 1 -i 31 -a 1 -x {0.0 1.0 20 ------- null}
r -t 0.60968 -s 0 -d 1 -p tcp -e 1040 -c 1 -i 18 -a 1 -x {0.0 1.0 11 ------- null}
+ -t 0.60968 -s 1 -d 0 -p ack -e 40 -c 1 -i 32 -a 1 -x {1.0 0.0 11 ------- null}
- -t 0.60968 -s 1 -d 0 -p ack -e 40 -c 1 -i 32 -a 1 -x {1.0 0.0 11 ------- null}
h -t 0.60968 -s 1 -d 0 -p ack -e 40 -c 1 -i 32 -a 1 -x {1.0 0.0 -1 ------- null}
- -t 0.610773333333334 -s 0 -d 1 -p tcp -e 1040 -c 1 -i 22 -a 1 -x {0.0 1.0 14 ------- null}
h -t 0.610773333333334 -s 0 -d 1 -p tcp -e 1040 -c 1 -i 22 -a 1 -x {0.0 1.0 -1 ------- null}
r -t 0.614346666666667 -s 1 -d 0 -p ack -e 40 -c 1 -i 29 -a 1 -x {1.0 0.0 10 ------- null}
+ -t 0.614346666666667 -s 0 -d 1 -p tcp -e 1040 -c 1 -i 33 -a 1 -x {0.0 1.0 21 ------- null}
+ -t 0.614346666666667 -s 0 -d 1 -p tcp -e 1040 -c 1 -i 34 -a 1 -x {0.0 1.0 22 ------- null}
r -t 0.615226666666667 -s 0 -d 1 -p tcp -e 1040 -c 1 -i 19 -a 1 -x {0.0 1.0 12 ------- null}
+ -t 0.615226666666667 -s 1 -d 0 -p ack -e 40 -c 1 -i 35 -a 1 -x {1.0 0.0 12 ------- null}
- -t 0.615226666666667 -s 1 -d 0 -p ack -e 40 -c 1 -i 35 -a 1 -x {1.0 0.0 12 ------- null}
h -t 0.615226666666667 -s 1 -d 0 -p ack -e 40 -c 1 -i 35 -a 1 -x {1.0 0.0 -1 ------- null}
- -t 0.61632 -s 0 -d 1 -p tcp -e 1040 -c 1 -i 24 -a 1 -x {0.0 1.0 15 ------- null}
h -t 0.61632 -s 0 -d 1 -p tcp -e 1040 -c 1 -i 24 -a 1 -x {0.0 1.0 -1 ------- null}
r -t 0.619893333333333 -s 1 -d 0 -p ack -e 40 -c 1 -i 32 -a 1 -x {1.0 0.0 11 ------- null}
+ -t 0.619893333333333 -s 0 -d 1 -p tcp -e 1040 -c 1 -i 36 -a 1 -x {0.0 1.0 23 ------- null}
+ -t 0.619893333333333 -s 0 -d 1 -p tcp -e 1040 -c 1 -i 37 -a 1 -x {0.0 1.0 24 ------- null}
r -t 0.620773333333334 -s 0 -d 1 -p tcp -e 1040 -c 1 -i 21 -a 1 -x {0.0 1.0 13 ------- null}
+ -t 0.620773333333334 -s 1 -d 0 -p ack -e 40 -c 1 -i 38 -a 1 -x {1.0 0.0 13 ------- null}
- -t 0.620773333333334 -s 1 -d 0 -p ack -e 40 -c 1 -i 38 -a 1 -x {1.0 0.0 13 ------- null}
h -t 0.620773333333334 -s 1 -d 0 -p ack -e 40 -c 1 -i 38 -a 1 -x {1.0 0.0 -1 ------- null}
- -t 0.621866666666667 -s 0 -d 1 -p tcp -e 1040 -c 1 -i 25 -a 1 -x {0.0 1.0 16 ------- null}
h -t 0.621866666666667 -s 0 -d 1 -p tcp -e 1040 -c 1 -i 25 -a 1 -x {0.0 1.0 -1 ------- null}
r -t 0.62544 -s 1 -d 0 -p ack -e 40 -c 1 -i 35 -a 1 -x {1.0 0.0 12 ------- null}
+ -t 0.62544 -s 0 -d 1 -p tcp -e 1040 -c 1 -i 39 -a 1 -x {0.0 1.0 25 ------- null}
+ -t 0.62544 -s 0 -d 1 -p tcp -e 1040 -c 1 -i 40 -a 1 -x {0.0 1.0 26 ------- null}
r -t 0.62632 -s 0 -d 1 -p tcp -e 1040 -c 1 -i 22 -a 1 -x {0.0 1.0 14 ------- null}
+ -t 0.62632 -s 1 -d 0 -p ack -e 40 -c 1 -i 41 -a 1 -x {1.0 0.0 14 ------- null}
- -t 0.62632 -s 1 -d 0 -p ack -e 40 -c 1 -i 41 -a 1 -x {1.0 0.0 14 ------- null}
h -t 0.62632 -s 1 -d 0 -p ack -e 40 -c 1 -i 41 -a 1 -x {1.0 0.0 -1 ------- null}
- -t 0.627413333333334 -s 0 -d 1 -p tcp -e 1040 -c 1 -i 27 -a 1 -x {0.0 1.0 17 ------- null}
h -t 0.627413333333334 -s 0 -d 1 -p tcp -e 1040 -c 1 -i 27 -a 1 -x {0.0 1.0 -1 ------- null}
r -t 0.630986666666667 -s 1 -d 0 -p ack -e 40 -c 1 -i 38 -a 1 -x {1.0 0.0 13 ------- null}
+ -t 0.630986666666667 -s 0 -d 1 -p tcp -e 1040 -c 1 -i 42 -a 1 -x {0.0 1.0 27 ------- null}
+ -t 0.630986666666667 -s 0 -d 1 -p tcp -e 1040 -c 1 -i 43 -a 1 -x {0.0 1.0 28 ------- null}
r -t 0.631866666666667 -s 0 -d 1 -p tcp -e 1040 -c 1 -i 24 -a 1 -x {0.0 1.0 15 ------- null}
+ -t 0.631866666666667 -s 1 -d 0 -p ack -e 40 -c 1 -i 44 -a 1 -x {1.0 0.0 15 ------- null}
- -t 0.631866666666667 -s 1 -d 0 -p ack -e 40 -c 1 -i 44 -a 1 -x {1.0 0.0 15 ------- null}
h -t 0.631866666666667 -s 1 -d 0 -p ack -e 40 -c 1 -i 44 -a 1 -x {1.0 0.0 -1 ------- null}
- -t 0.63296 -s 0 -d 1 -p tcp -e 1040 -c 1 -i 28 -a 1 -x {0.0 1.0 18 ------- null}
h -t 0.63296 -s 0 -d 1 -p tcp -e 1040 -c 1 -i 28 -a 1 -x {0.0 1.0 -1 ------- null}
r -t 0.636533333333334 -s 1 -d 0 -p ack -e 40 -c 1 -i 41 -a 1 -x {1.0 0.0 14 ------- null}
+ -t 0.636533333333334 -s 0 -d 1 -p tcp -e 1040 -c 1 -i 45 -a 1 -x {0.0 1.0 29 ------- null}
+ -t 0.636533333333334 -s 0 -d 1 -p tcp -e 1040 -c 1 -i 46 -a 1 -x {0.0 1.0 30 ------- null}
r -t 0.637413333333334 -s 0 -d 1 -p tcp -e 1040 -c 1 -i 25 -a 1 -x {0.0 1.0 16 ------- null}
+ -t 0.637413333333334 -s 1 -d 0 -p ack -e 40 -c 1 -i 47 -a 1 -x {1.0 0.0 16 ------- null}
- -t 0.637413333333334 -s 1 -d 0 -p ack -e 40 -c 1 -i 47 -a 1 -x {1.0 0.0 16 ------- null}
h -t 0.637413333333334 -s 1 -d 0 -p ack -e 40 -c 1 -i 47 -a 1 -x {1.0 0.0 -1 ------- null}
- -t 0.638506666666667 -s 0 -d 1 -p tcp -e 1040 -c 1 -i 30 -a 1 -x {0.0 1.0 19 ------- null}
h -t 0.638506666666667 -s 0 -d 1 -p tcp -e 1040 -c 1 -i 30 -a 1 -x {0.0 1.0 -1 ------- null}
r -t 0.64208 -s 1 -d 0 -p ack -e 40 -c 1 -i 44 -a 1 -x {1.0 0.0 15 ------- null}
+ -t 0.64208 -s 0 -d 1 -p tcp -e 1040 -c 1 -i 48 -a 1 -x {0.0 1.0 31 ------- null}
+ -t 0.64208 -s 0 -d 1 -p tcp -e 1040 -c 1 -i 49 -a 1 -x {0.0 1.0 32 ------- null}
r -t 0.64296 -s 0 -d 1 -p tcp -e 1040 -c 1 -i 27 -a 1 -x {0.0 1.0 17 ------- null}
+ -t 0.64296 -s 1 -d 0 -p ack -e 40 -c 1 -i 50 -a 1 -x {1.0 0.0 17 ------- null}
- -t 0.64296 -s 1 -d 0 -p ack -e 40 -c 1 -i 50 -a 1 -x {1.0 0.0 17 ------- null}
h -t 0.64296 -s 1 -d 0 -p ack -e 40 -c 1 -i 50 -a 1 -x {1.0 0.0 -1 ------- null}
- -t 0.644053333333334 -s 0 -d 1 -p tcp -e 1040 -c 1 -i 31 -a 1 -x {0.0 1.0 20 ------- null}
h -t 0.644053333333334 -s 0 -d 1 -p tcp -e 1040 -c 1 -i 31 -a 1 -x {0.0 1.0 -1 ------- null}
r -t 0.647626666666667 -s 1 -d 0 -p ack -e 40 -c 1 -i 47 -a 1 -x {1.0 0.0 16 ------- null}
+ -t 0.647626666666667 -s 0 -d 1 -p tcp -e 1040 -c 1 -i 51 -a 1 -x {0.0 1.0 33 ------- null}
+ -t 0.647626666666667 -s 0 -d 1 -p tcp -e 1040 -c 1 -i 52 -a 1 -x {0.0 1.0 34 ------- null}
r -t 0.648506666666667 -s 0 -d 1 -p tcp -e 1040 -c 1 -i 28 -a 1 -x {0.0 1.0 18 ------- null}
+ -t 0.648506666666667 -s 1 -d 0 -p ack -e 40 -c 1 -i 53 -a 1 -x {1.0 0.0 18 ------- null}
- -t 0.648506666666667 -s 1 -d 0 -p ack -e 40 -c 1 -i 53 -a 1 -x {1.0 0.0 18 ------- null}
h -t 0.648506666666667 -s 1 -d 0 -p ack -e 40 -c 1 -i 53 -a 1 -x {1.0 0.0 -1 ------- null}
- -t 0.6496 -s 0 -d 1 -p tcp -e 1040 -c 1 -i 33 -a 1 -x {0.0 1.0 21 ------- null}
h -t 0.6496 -s 0 -d 1 -p tcp -e 1040 -c 1 -i 33 -a 1 -x {0.0 1.0 -1 ------- null}
r -t 0.653173333333334 -s 1 -d 0 -p ack -e 40 -c 1 -i 50 -a 1 -x {1.0 0.0 17 ------- null}
+ -t 0.653173333333334 -s 0 -d 1 -p tcp -e 1040 -c 1 -i 54 -a 1 -x {0.0 1.0 35 ------- null}
+ -t 0.653173333333334 -s 0 -d 1 -p tcp -e 1040 -c 1 -i 55 -a 1 -x {0.0 1.0 36 ------- null}
r -t 0.654053333333334 -s 0 -d 1 -p tcp -e 1040 -c 1 -i 30 -a 1 -x {0.0 1.0 19 ------- null}
+ -t 0.654053333333334 -s 1 -d 0 -p ack -e 40 -c 1 -i 56 -a 1 -x {1.0 0.0 19 ------- null}
- -t 0.654053333333334 -s 1 -d 0 -p ack -e 40 -c 1 -i 56 -a 1 -x {1.0 0.0 19 ------- null}
h -t 0.654053333333334 -s 1 -d 0 -p ack -e 40 -c 1 -i 56 -a 1 -x {1.0 0.0 -1 ------- null}
- -t 0.655146666666667 -s 0 -d 1 -p tcp -e 1040 -c 1 -i 34 -a 1 -x {0.0 1.0 22 ------- null}
h -t 0.655146666666667 -s 0 -d 1 -p tcp -e 1040 -c 1 -i 34 -a 1 -x {0.0 1.0 -1 ------- null}
r -t 0.65872 -s 1 -d 0 -p ack -e 40 -c 1 -i 53 -a 1 -x {1.0 0.0 18 ------- null}
+ -t 0.65872 -s 0 -d 1 -p tcp -e 1040 -c 1 -i 57 -a 1 -x {0.0 1.0 37 ------- null}
+ -t 0.65872 -s 0 -d 1 -p tcp -e 1040 -c 1 -i 58 -a 1 -x {0.0 1.0 38 ------- null}
r -t 0.6596 -s 0 -d 1 -p tcp -e 1040 -c 1 -i 31 -a 1 -x {0.0 1.0 20 ------- null}
+ -t 0.6596 -s 1 -d 0 -p ack -e 40 -c 1 -i 59 -a 1 -x {1.0 0.0 20 ------- null}
- -t 0.6596 -s 1 -d 0 -p ack -e 40 -c 1 -i 59 -a 1 -x {1.0 0.0 20 ------- null}
h -t 0.6596 -s 1 -d 0 -p ack -e 40 -c 1 -i 59 -a 1 -x {1.0 0.0 -1 ------- null}
- -t 0.660693333333334 -s 0 -d 1 -p tcp -e 1040 -c 1 -i 36 -a 1 -x {0.0 1.0 23 ------- null}
h -t 0.660693333333334 -s 0 -d 1 -p tcp -e 1040 -c 1 -i 36 -a 1 -x {0.0 1.0 -1 ------- null}
r -t 0.664266666666667 -s 1 -d 0 -p ack -e 40 -c 1 -i 56 -a 1 -x {1.0 0.0 19 ------- null}
+ -t 0.664266666666667 -s 0 -d 1 -p tcp -e 1040 -c 1 -i 60 -a 1 -x {0.0 1.0 39 ------- null}
r -t 0.665146666666667 -s 0 -d 1 -p tcp -e 1040 -c 1 -i 33 -a 1 -x {0.0 1.0 21 ------- null}
+ -t 0.665146666666667 -s 1 -d 0 -p ack -e 40 -c 1 -i 61 -a 1 -x {1.0 0.0 21 ------- null}
- -t 0.665146666666667 -s 1 -d 0 -p ack -e 40 -c 1 -i 61 -a 1 -x {1.0 0.0 21 ------- null}
h -t 0.665146666666667 -s 1 -d 0 -p ack -e 40 -c 1 -i 61 -a 1 -x {1.0 0.0 -1 ------- null}
- -t 0.66624 -s 0 -d 1 -p tcp -e 1040 -c 1 -i 37 -a 1 -x {0.0 1.0 24 ------- null}
h -t 0.66624 -s 0 -d 1 -p tcp -e 1040 -c 1 -i 37 -a 1 -x {0.0 1.0 -1 ------- null}
r -t 0.669813333333334 -s 1 -d 0 -p ack -e 40 -c 1 -i 59 -a 1 -x {1.0 0.0 20 ------- null}
+ -t 0.669813333333334 -s 0 -d 1 -p tcp -e 1040 -c 1 -i 62 -a 1 -x {0.0 1.0 40 ------- null}
r -t 0.670693333333334 -s 0 -d 1 -p tcp -e 1040 -c 1 -i 34 -a 1 -x {0.0 1.0 22 ------- null}
+ -t 0.670693333333334 -s 1 -d 0 -p ack -e 40 -c 1 -i 63 -a 1 -x {1.0 0.0 22 ------- null}
- -t 0.670693333333334 -s 1 -d 0 -p ack -e 40 -c 1 -i 63 -a 1 -x {1.0 0.0 22 ------- null}
h -t 0.670693333333334 -s 1 -d 0 -p ack -e 40 -c 1 -i 63 -a 1 -x {1.0 0.0 -1 ------- null}
- -t 0.671786666666667 -s 0 -d 1 -p tcp -e 1040 -c 1 -i 39 -a 1 -x {0.0 1.0 25 ------- null}
h -t 0.671786666666667 -s 0 -d 1 -p tcp -e 1040 -c 1 -i 39 -a 1 -x {0.0 1.0 -1 ------- null}
r -t 0.67536 -s 1 -d 0 -p ack -e 40 -c 1 -i 61 -a 1 -x {1.0 0.0 21 ------- null}
+ -t 0.67536 -s 0 -d 1 -p tcp -e 1040 -c 1 -i 64 -a 1 -x {0.0 1.0 41 ------- null}
r -t 0.676240000000001 -s 0 -d 1 -p tcp -e 1040 -c 1 -i 36 -a 1 -x {0.0 1.0 23 ------- null}
+ -t 0.676240000000001 -s 1 -d 0 -p ack -e 40 -c 1 -i 65 -a 1 -x {1.0 0.0 23 ------- null}
- -t 0.676240000000001 -s 1 -d 0 -p ack -e 40 -c 1 -i 65 -a 1 -x {1.0 0.0 23 ------- null}
h -t 0.676240000000001 -s 1 -d 0 -p ack -e 40 -c 1 -i 65 -a 1 -x {1.0 0.0 -1 ------- null}
- -t 0.677333333333334 -s 0 -d 1 -p tcp -e 1040 -c 1 -i 40 -a 1 -x {0.0 1.0 26 ------- null}
h -t 0.677333333333334 -s 0 -d 1 -p tcp -e 1040 -c 1 -i 40 -a 1 -x {0.0 1.0 -1 ------- null}
r -t 0.680906666666667 -s 1 -d 0 -p ack -e 40 -c 1 -i 63 -a 1 -x {1.0 0.0 22 ------- null}
+ -t 0.680906666666667 -s 0 -d 1 -p tcp -e 1040 -c 1 -i 66 -a 1 -x {0.0 1.0 42 ------- null}
r -t 0.681786666666667 -s 0 -d 1 -p tcp -e 1040 -c 1 -i 37 -a 1 -x {0.0 1.0 24 ------- null}
+ -t 0.681786666666667 -s 1 -d 0 -p ack -e 40 -c 1 -i 67 -a 1 -x {1.0 0.0 24 ------- null}
- -t 0.681786666666667 -s 1 -d 0 -p ack -e 40 -c 1 -i 67 -a 1 -x {1.0 0.0 24 ------- null}
h -t 0.681786666666667 -s 1 -d 0 -p ack -e 40 -c 1 -i 67 -a 1 -x {1.0 0.0 -1 ------- null}
- -t 0.682880000000001 -s 0 -d 1 -p tcp -e 1040 -c 1 -i 42 -a 1 -x {0.0 1.0 27 ------- null}
h -t 0.682880000000001 -s 0 -d 1 -p tcp -e 1040 -c 1 -i 42 -a 1 -x {0.0 1.0 -1 ------- null}
r -t 0.686453333333334 -s 1 -d 0 -p ack -e 40 -c 1 -i 65 -a 1 -x {1.0 0.0 23 ------- null}
+ -t 0.686453333333334 -s 0 -d 1 -p tcp -e 1040 -c 1 -i 68 -a 1 -x {0.0 1.0 43 ------- null}
r -t 0.687333333333334 -s 0 -d 1 -p tcp -e 1040 -c 1 -i 39 -a 1 -x {0.0 1.0 25 ------- null}
+ -t 0.687333333333334 -s 1 -d 0 -p ack -e 40 -c 1 -i 69 -a 1 -x {1.0 0.0 25 ------- null}
- -t 0.687333333333334 -s 1 -d 0 -p ack -e 40 -c 1 -i 69 -a 1 -x {1.0 0.0 25 ------- null}
h -t 0.687333333333334 -s 1 -d 0 -p ack -e 40 -c 1 -i 69 -a 1 -x {1.0 0.0 -1 ------- null}
- -t 0.688426666666667 -s 0 -d 1 -p tcp -e 1040 -c 1 -i 43 -a 1 -x {0.0 1.0 28 ------- null}
h -t 0.688426666666667 -s 0 -d 1 -p tcp -e 1040 -c 1 -i 43 -a 1 -x {0.0 1.0 -1 ------- null}
r -t 0.692000000000001 -s 1 -d 0 -p ack -e 40 -c 1 -i 67 -a 1 -x {1.0 0.0 24 ------- null}
+ -t 0.692000000000001 -s 0 -d 1 -p tcp -e 1040 -c 1 -i 70 -a 1 -x {0.0 1.0 44 ------- null}
r -t 0.692880000000001 -s 0 -d 1 -p tcp -e 1040 -c 1 -i 40 -a 1 -x {0.0 1.0 26 ------- null}
+ -t 0.692880000000001 -s 1 -d 0 -p ack -e 40 -c 1 -i 71 -a 1 -x {1.0 0.0 26 ------- null}
- -t 0.692880000000001 -s 1 -d 0 -p ack -e 40 -c 1 -i 71 -a 1 -x {1.0 0.0 26 ------- null}
h -t 0.692880000000001 -s 1 -d 0 -p ack -e 40 -c 1 -i 71 -a 1 -x {1.0 0.0 -1 ------- null}
- -t 0.693973333333334 -s 0 -d 1 -p tcp -e 1040 -c 1 -i 45 -a 1 -x {0.0 1.0 29 ------- null}
h -t 0.693973333333334 -s 0 -d 1 -p tcp -e 1040 -c 1 -i 45 -a 1 -x {0.0 1.0 -1 ------- null}
r -t 0.697546666666667 -s 1 -d 0 -p ack -e 40 -c 1 -i 69 -a 1 -x {1.0 0.0 25 ------- null}
+ -t 0.697546666666667 -s 0 -d 1 -p tcp -e 1040 -c 1 -i 72 -a 1 -x {0.0 1.0 45 ------- null}
r -t 0.698426666666667 -s 0 -d 1 -p tcp -e 1040 -c 1 -i 42 -a 1 -x {0.0 1.0 27 ------- null}
+ -t 0.698426666666667 -s 1 -d 0 -p ack -e 40 -c 1 -i 73 -a 1 -x {1.0 0.0 27 ------- null}
- -t 0.698426666666667 -s 1 -d 0 -p ack -e 40 -c 1 -i 73 -a 1 -x {1.0 0.0 27 ------- null}
h -t 0.698426666666667 -s 1 -d 0 -p ack -e 40 -c 1 -i 73 -a 1 -x {1.0 0.0 -1 ------- null}
- -t 0.699520000000001 -s 0 -d 1 -p tcp -e 1040 -c 1 -i 46 -a 1 -x {0.0 1.0 30 ------- null}
h -t 0.699520000000001 -s 0 -d 1 -p tcp -e 1040 -c 1 -i 46 -a 1 -x {0.0 1.0 -1 ------- null}
r -t 0.703093333333334 -s 1 -d 0 -p ack -e 40 -c 1 -i 71 -a 1 -x {1.0 0.0 26 ------- null}
+ -t 0.703093333333334 -s 0 -d 1 -p tcp -e 1040 -c 1 -i 74 -a 1 -x {0.0 1.0 46 ------- null}
r -t 0.703973333333334 -s 0 -d 1 -p tcp -e 1040 -c 1 -i 43 -a 1 -x {0.0 1.0 28 ------- null}
+ -t 0.703973333333334 -s 1 -d 0 -p ack -e 40 -c 1 -i 75 -a 1 -x {1.0 0.0 28 ------- null}
- -t 0.703973333333334 -s 1 -d 0 -p ack -e 40 -c 1 -i 75 -a 1 -x {1.0 0.0 28 ------- null}
h -t 0.703973333333334 -s 1 -d 0 -p ack -e 40 -c 1 -i 75 -a 1 -x {1.0 0.0 -1 ------- null}
- -t 0.705066666666667 -s 0 -d 1 -p tcp -e 1040 -c 1 -i 48 -a 1 -x {0.0 1.0 31 ------- null}
h -t 0.705066666666667 -s 0 -d 1 -p tcp -e 1040 -c 1 -i 48 -a 1 -x {0.0 1.0 -1 ------- null}
r -t 0.708640000000001 -s 1 -d 0 -p ack -e 40 -c 1 -i 73 -a 1 -x {1.0 0.0 27 ------- null}
+ -t 0.708640000000001 -s 0 -d 1 -p tcp -e 1040 -c 1 -i 76 -a 1 -x {0.0 1.0 47 ------- null}
r -t 0.709520000000001 -s 0 -d 1 -p tcp -e 1040 -c 1 -i 45 -a 1 -x {0.0 1.0 29 ------- null}
+ -t 0.709520000000001 -s 1 -d 0 -p ack -e 40 -c 1 -i 77 -a 1 -x {1.0 0.0 29 ------- null}
- -t 0.709520000000001 -s 1 -d 0 -p ack -e 40 -c 1 -i 77 -a 1 -x {1.0 0.0 29 ------- null}
h -t 0.709520000000001 -s 1 -d 0 -p ack -e 40 -c 1 -i 77 -a 1 -x {1.0 0.0 -1 ------- null}
- -t 0.710613333333334 -s 0 -d 1 -p tcp -e 1040 -c 1 -i 49 -a 1 -x {0.0 1.0 32 ------- null}
h -t 0.710613333333334 -s 0 -d 1 -p tcp -e 1040 -c 1 -i 49 -a 1 -x {0.0 1.0 -1 ------- null}
r -t 0.714186666666667 -s 1 -d 0 -p ack -e 40 -c 1 -i 75 -a 1 -x {1.0 0.0 28 ------- null}
+ -t 0.714186666666667 -s 0 -d 1 -p tcp -e 1040 -c 1 -i 78 -a 1 -x {0.0 1.0 48 ------- null}
r -t 0.715066666666667 -s 0 -d 1 -p tcp -e 1040 -c 1 -i 46 -a 1 -x {0.0 1.0 30 ------- null}
+ -t 0.715066666666667 -s 1 -d 0 -p ack -e 40 -c 1 -i 79 -a 1 -x {1.0 0.0 30 ------- null}
- -t 0.715066666666667 -s 1 -d 0 -p ack -e 40 -c 1 -i 79 -a 1 -x {1.0 0.0 30 ------- null}
h -t 0.715066666666667 -s 1 -d 0 -p ack -e 40 -c 1 -i 79 -a 1 -x {1.0 0.0 -1 ------- null}
- -t 0.716160000000001 -s 0 -d 1 -p tcp -e 1040 -c 1 -i 51 -a 1 -x {0.0 1.0 33 ------- null}
h -t 0.716160000000001 -s 0 -d 1 -p tcp -e 1040 -c 1 -i 51 -a 1 -x {0.0 1.0 -1 ------- null}
r -t 0.719733333333334 -s 1 -d 0 -p ack -e 40 -c 1 -i 77 -a 1 -x {1.0 0.0 29 ------- null}
+ -t 0.719733333333334 -s 0 -d 1 -p tcp -e 1040 -c 1 -i 80 -a 1 -x {0.0 1.0 49 ------- null}
r -t 0.720613333333334 -s 0 -d 1 -p tcp -e 1040 -c 1 -i 48 -a 1 -x {0.0 1.0 31 ------- null}
+ -t 0.720613333333334 -s 1 -d 0 -p ack -e 40 -c 1 -i 81 -a 1 -x {1.0 0.0 31 ------- null}
- -t 0.720613333333334 -s 1 -d 0 -p ack -e 40 -c 1 -i 81 -a 1 -x {1.0 0.0 31 ------- null}
h -t 0.720613333333334 -s 1 -d 0 -p ack -e 40 -c 1 -i 81 -a 1 -x {1.0 0.0 -1 ------- null}
- -t 0.721706666666667 -s 0 -d 1 -p tcp -e 1040 -c 1 -i 52 -a 1 -x {0.0 1.0 34 ------- null}
h -t 0.721706666666667 -s 0 -d 1 -p tcp -e 1040 -c 1 -i 52 -a 1 -x {0.0 1.0 -1 ------- null}
r -t 0.725280000000001 -s 1 -d 0 -p ack -e 40 -c 1 -i 79 -a 1 -x {1.0 0.0 30 ------- null}
+ -t 0.725280000000001 -s 0 -d 1 -p tcp -e 1040 -c 1 -i 82 -a 1 -x {0.0 1.0 50 ------- null}
r -t 0.726160000000001 -s 0 -d 1 -p tcp -e 1040 -c 1 -i 49 -a 1 -x {0.0 1.0 32 ------- null}
+ -t 0.726160000000001 -s 1 -d 0 -p ack -e 40 -c 1 -i 83 -a 1 -x {1.0 0.0 32 ------- null}
- -t 0.726160000000001 -s 1 -d 0 -p ack -e 40 -c 1 -i 83 -a 1 -x {1.0 0.0 32 ------- null}
h -t 0.726160000000001 -s 1 -d 0 -p ack -e 40 -c 1 -i 83 -a 1 -x {1.0 0.0 -1 ------- null}
- -t 0.727253333333334 -s 0 -d 1 -p tcp -e 1040 -c 1 -i 54 -a 1 -x {0.0 1.0 35 ------- null}
h -t 0.727253333333334 -s 0 -d 1 -p tcp -e 1040 -c 1 -i 54 -a 1 -x {0.0 1.0 -1 ------- null}
r -t 0.730826666666667 -s 1 -d 0 -p ack -e 40 -c 1 -i 81 -a 1 -x {1.0 0.0 31 ------- null}
+ -t 0.730826666666667 -s 0 -d 1 -p tcp -e 1040 -c 1 -i 84 -a 1 -x {0.0 1.0 51 ------- null}
r -t 0.731706666666668 -s 0 -d 1 -p tcp -e 1040 -c 1 -i 51 -a 1 -x {0.0 1.0 33 ------- null}
+ -t 0.731706666666668 -s 1 -d 0 -p ack -e 40 -c 1 -i 85 -a 1 -x {1.0 0.0 33 ------- null}
- -t 0.731706666666668 -s 1 -d 0 -p ack -e 40 -c 1 -i 85 -a 1 -x {1.0 0.0 33 ------- null}
h -t 0.731706666666668 -s 1 -d 0 -p ack -e 40 -c 1 -i 85 -a 1 -x {1.0 0.0 -1 ------- null}
- -t 0.732800000000001 -s 0 -d 1 -p tcp -e 1040 -c 1 -i 55 -a 1 -x {0.0 1.0 36 ------- null}
h -t 0.732800000000001 -s 0 -d 1 -p tcp -e 1040 -c 1 -i 55 -a 1 -x {0.0 1.0 -1 ------- null}
r -t 0.736373333333334 -s 1 -d 0 -p ack -e 40 -c 1 -i 83 -a 1 -x {1.0 0.0 32 ------- null}
+ -t 0.736373333333334 -s 0 -d 1 -p tcp -e 1040 -c 1 -i 86 -a 1 -x {0.0 1.0 52 ------- null}
r -t 0.737253333333334 -s 0 -d 1 -p tcp -e 1040 -c 1 -i 52 -a 1 -x {0.0 1.0 34 ------- null}
+ -t 0.737253333333334 -s 1 -d 0 -p ack -e 40 -c 1 -i 87 -a 1 -x {1.0 0.0 34 ------- null}
- -t 0.737253333333334 -s 1 -d 0 -p ack -e 40 -c 1 -i 87 -a 1 -x {1.0 0.0 34 ------- null}
h -t 0.737253333333334 -s 1 -d 0 -p ack -e 40 -c 1 -i 87 -a 1 -x {1.0 0.0 -1 ------- null}
- -t 0.738346666666668 -s 0 -d 1 -p tcp -e 1040 -c 1 -i 57 -a 1 -x {0.0 1.0 37 ------- null}
h -t 0.738346666666668 -s 0 -d 1 -p tcp -e 1040 -c 1 -i 57 -a 1 -x {0.0 1.0 -1 ------- null}
r -t 0.741920000000001 -s 1 -d 0 -p ack -e 40 -c 1 -i 85 -a 1 -x {1.0 0.0 33 ------- null}
+ -t 0.741920000000001 -s 0 -d 1 -p tcp -e 1040 -c 1 -i 88 -a 1 -x {0.0 1.0 53 ------- null}
r -t 0.742800000000001 -s 0 -d 1 -p tcp -e 1040 -c 1 -i 54 -a 1 -x {0.0 1.0 35 ------- null}
+ -t 0.742800000000001 -s 1 -d 0 -p ack -e 40 -c 1 -i 89 -a 1 -x {1.0 0.0 35 ------- null}
- -t 0.742800000000001 -s 1 -d 0 -p ack -e 40 -c 1 -i 89 -a 1 -x {1.0 0.0 35 ------- null}
h -t 0.742800000000001 -s 1 -d 0 -p ack -e 40 -c 1 -i 89 -a 1 -x {1.0 0.0 -1 ------- null}
- -t 0.743893333333334 -s 0 -d 1 -p tcp -e 1040 -c 1 -i 58 -a 1 -x {0.0 1.0 38 ------- null}
h -t 0.743893333333334 -s 0 -d 1 -p tcp -e 1040 -c 1 -i 58 -a 1 -x {0.0 1.0 -1 ------- null}
r -t 0.747466666666668 -s 1 -d 0 -p ack -e 40 -c 1 -i 87 -a 1 -x {1.0 0.0 34 ------- null}
+ -t 0.747466666666668 -s 0 -d 1 -p tcp -e 1040 -c 1 -i 90 -a 1 -x {0.0 1.0 54 ------- null}
r -t 0.748346666666668 -s 0 -d 1 -p tcp -e 1040 -c 1 -i 55 -a 1 -x {0.0 1.0 36 ------- null}
+ -t 0.748346666666668 -s 1 -d 0 -p ack -e 40 -c 1 -i 91 -a 1 -x {1.0 0.0 36 ------- null}
- -t 0.748346666666668 -s 1 -d 0 -p ack -e 40 -c 1 -i 91 -a 1 -x {1.0 0.0 36 ------- null}
h -t 0.748346666666668 -s 1 -d 0 -p ack -e 40 -c 1 -i 91 -a 1 -x {1.0 0.0 -1 ------- null}
- -t 0.749440000000001 -s 0 -d 1 -p tcp -e 1040 -c 1 -i 60 -a 1 -x {0.0 1.0 39 ------- null}
h -t 0.749440000000001 -s 0 -d 1 -p tcp -e 1040 -c 1 -i 60 -a 1 -x {0.0 1.0 -1 ------- null}
r -t 0.753013333333334 -s 1 -d 0 -p ack -e 40 -c 1 -i 89 -a 1 -x {1.0 0.0 35 ------- null}
+ -t 0.753013333333334 -s 0 -d 1 -p tcp -e 1040 -c 1 -i 92 -a 1 -x {0.0 1.0 55 ------- null}
r -t 0.753893333333334 -s 0 -d 1 -p tcp -e 1040 -c 1 -i 57 -a 1 -x {0.0 1.0 37 ------- null}
+ -t 0.753893333333334 -s 1 -d 0 -p ack -e 40 -c 1 -i 93 -a 1 -x {1.0 0.0 37 ------- null}
- -t 0.753893333333334 -s 1 -d 0 -p ack -e 40 -c 1 -i 93 -a 1 -x {1.0 0.0 37 ------- null}
h -t 0.753893333333334 -s 1 -d 0 -p ack -e 40 -c 1 -i 93 -a 1 -x {1.0 0.0 -1 ------- null}
- -t 0.754986666666668 -s 0 -d 1 -p tcp -e 1040 -c 1 -i 62 -a 1 -x {0.0 1.0 40 ------- null}
h -t 0.754986666666668 -s 0 -d 1 -p tcp -e 1040 -c 1 -i 62 -a 1 -x {0.0 1.0 -1 ------- null}
r -t 0.758560000000001 -s 1 -d 0 -p ack -e 40 -c 1 -i 91 -a 1 -x {1.0 0.0 36 ------- null}