V -t * -v 1.0a5 -a 0
A -t * -n 1 -p 0 -o 0x7fffffff -c 30 -a 1
A -t * -h 1 -m 1073741823 -s 0
c -t * -i 1 -n Blue
c -t * -i 2 -n Red
n -t * -a 0 -s 0 -S UP -v circle -c black -i black
n -t * -a 1 -s 1 -S UP -v circle -c black -i black
n -t * -a 2 -s 2 -S UP -v circle -c black -i black
n -t * -a 3 -s 3 -S UP -v circle -c black -i black
l -t * -s 0 -d 1 -S UP -r 1500000 -D 0.01 -c black -o right
l -t * -s 1 -d 2 -S UP -r 1500000 -D 0.01 -c black -o right
l -t * -s 2 -d 3 -S UP -r 3000000 -D 0.0050000000000000001 -c black -o right
+ -t 0.5 -s 2 -d 3 -p tcp -e 40 -c 1 -i 0 -a 1 -x {2.0 3.0 0 ------- null}
- -t 0.5 -s 2 -d 3 -p tcp -e 40 -c 1 -i 0 -a 1 -x {2.0 3.0 0 ------- null}
h -t 0.5 -s 2 -d 3 -p tcp -e 40 -c 1 -i 0 -a 1 -x {2.0 3.0 -1 ------- null}
r -t 0.505106666666667 -s 2 -d 3 -p tcp -e 40 -c 1 -i 0 -a 1 -x {2.0 3.0 0 ------- null}
+ -t 0.505106666666667 -s 3 -d 2 -p ack -e 40 -c 1 -i 1 -a 1 -x {3.0 2.0 0 ------- null}
- -t 0.505106666666667 -s 3 -d 2 -p ack -e 40 -c 1 -i 1 -a 1 -x {3.0 2.0 0 ------- null}
h -t 0.505106666666667 -s 3 -d 2 -p ack -e 40 -c 1 -i 1 -a 1 -x {3.0 2.0 -1 ------- null}
r -t 0.510213333333333 -s 3 -d 2 -p ack -e 40 -c 1 -i 1 -a 1 -x {3.0 2.0 0 ------- null}
+ -t 0.510213333333333 -s 2 -d 3 -p tcp -e 1040 -c 1 -i 2 -a 1 -x {2.0 3.0 1 ------- null}
- -t 0.510213333333333 -s 2 -d 3 -p tcp -e 1040 -c 1 -i 2 -a 1 -x {2.0 3.0 1 ------- null}
h -t 0.510213333333333 -s 2 -d 3 -p tcp -e 1040 -c 1 -i 2 -a 1 -x {2.0 3.0 -1 ------- null}
+ -t 0.510213333333333 -s 2 -d 3 -p tcp -e 1040 -c 1 -i 3 -a 1 -x {2.0 3.0 2 ------- null}
- -t 0.512986666666667 -s 2 -d 3 -p tcp -e 1040 -c 1 -i 3 -a 1 -x {2.0 3.0 2 ------- null}
h -t 0.512986666666667 -s 2 -d 3 -p tcp -e 1040 -c 1 -i 3 -a 1 -x {2.0 3.0 -1 ------- null}
r -t 0.517986666666667 -s 2 -d 3 -p tcp -e 1040 -c 1 -i 2 -a 1 -x {2.0 3.0 1 ------- null}
+ -t 0.517986666666667 -s 3 -d 2 -p ack -e 40 -c 1 -i 4 -a 1 -x {3.0 2.0 1 ------- null}
- -t 0.517986666666667 -s 3 -d 2 -p ack -e 40 -c 1 -i 4 -a 1 -x {3.0 2.0 1 ------- null}
h -t 0.517986666666667 -s 3 -d 2 -p ack -e 40 -c 1 -i 4 -a 1 -x {3.0 2.0 -1 ------- null}
r -t 0.52076 -s 2 -d 3 -p tcp -e 1040 -c 1 -i 3 -a 1 -x {2.0 3.0 2 ------- null}
+ -t 0.52076 -s 3 -d 2 -p ack -e 40 -c 1 -i 5 -a 1 -x {3.0 2.0 2 ------- null}
- -t 0.52076 -s 3 -d 2 -p ack -e 40 -c 1 -i 5 -a 1 -x {3.0 2.0 2 ------- null}
h -t 0.52076 -s 3 -d 2 -p ack -e 40 -c 1 -i 5 -a 1 -x {3.0 2.0 -1 ------- null}
r -t 0.523093333333333 -s 3 -d 2 -p ack -e 40 -c 1 -i 4 -a 1 -x {3.0 2.0 1 ------- null}
+ -t 0.523093333333333 -s 2 -d 3 -p tcp -e 1040 -c 1 -i 6 -a 1 -x {2.0 3.0 3 ------- null}
- -t 0.523093333333333 -s 2 -d 3 -p tcp -e 1040 -c 1 -i 6 -a 1 -x {2.0 3.0 3 ------- null}
h -t 0.523093333333333 -s 2 -d 3 -p tcp -e 1040 -c 1 -i 6 -a 1 -x {2.0 3.0 -1 ------- null}
+ -t 0.523093333333333 -s 2 -d 3 -p tcp -e 1040 -c 1 -i 7 -a 1 -x {2.0 3.0 4 ------- null}
r -t 0.525866666666667 -s 3 -d 2 -p ack -e 40 -c 1 -i 5 -a 1 -x {3.0 2.0 2 ------- null}
+ -t 0.525866666666667 -s 2 -d 3 -p tcp -e 1040 -c 1 -i 8 -a 1 -x {2.0 3.0 5 ------- null}
+ -t 0.525866666666667 -s 2 -d 3 -p tcp -e 1040 -c 1 -i 9 -a 1 -x {2.0 3.0 6 ------- null}
- -t 0.525866666666667 -s 2 -d 3 -p tcp -e 1040 -c 1 -i 7 -a 1 -x {2.0 3.0 4 ------- null}
h -t 0.525866666666667 -s 2 -d 3 -p tcp -e 1040 -c 1 -i 7 -a 1 -x {2.0 3.0 -1 ------- null}
- -t 0.52864 -s 2 -d 3 -p tcp -e 1040 -c 1 -i 8 -a 1 -x {2.0 3.0 5 ------- null}
h -t 0.52864 -s 2 -d 3 -p tcp -e 1040 -c 1 -i 8 -a 1 -x {2.0 3.0 -1 ------- null}
r -t 0.530866666666667 -s 2 -d 3 -p tcp -e 1040 -c 1 -i 6 -a 1 -x {2.0 3.0 3 ------- null}
+ -t 0.530866666666667 -s 3 -d 2 -p ack -e 40 -c 1 -i 10 -a 1 -x {3.0 2.0 3 ------- null}
- -t 0.530866666666667 -s 3 -d 2 -p ack -e 40 -c 1 -i 10 -a 1 -x {3.0 2.0 3 ------- null}
h -t 0.530866666666667 -s 3 -d 2 -p ack -e 40 -c 1 -i 10 -a 1 -x {3.0 2.0 -1 ------- null}
- -t 0.531413333333333 -s 2 -d 3 -p tcp -e 1040 -c 1 -i 9 -a 1 -x {2.0 3.0 6 ------- null}
h -t 0.531413333333333 -s 2 -d 3 -p tcp -e 1040 -c 1 -i 9 -a 1 -x {2.0 3.0 -1 ------- null}
r -t 0.53364 -s 2 -d 3 -p tcp -e 1040 -c 1 -i 7 -a 1 -x {2.0 3.0 4 ------- null}
+ -t 0.53364 -s 3 -d 2 -p ack -e 40 -c 1 -i 11 -a 1 -x {3.0 2.0 4 ------- null}
- -t 0.53364 -s 3 -d 2 -p ack -e 40 -c 1 -i 11 -a 1 -x {3.0 2.0 4 ------- null}
h -t 0.53364 -s 3 -d 2 -p ack -e 40 -c 1 -i 11 -a 1 -x {3.0 2.0 -1 ------- null}
r -t 0.535973333333333 -s 3 -d 2 -p ack -e 40 -c 1 -i 10 -a 1 -x {3.0 2.0 3 ------- null}
+ -t 0.535973333333333 -s 2 -d 3 -p tcp -e 1040 -c 1 -i 12 -a 1 -x {2.0 3.0 7 ------- null}
- -t 0.535973333333333 -s 2 -d 3 -p tcp -e 1040 -c 1 -i 12 -a 1 -x {2.0 3.0 7 ------- null}
h -t 0.535973333333333 -s 2 -d 3 -p tcp -e 1040 -c 1 -i 12 -a 1 -x {2.0 3.0 -1 ------- null}
+ -t 0.535973333333333 -s 2 -d 3 -p tcp -e 1040 -c 1 -i 13 -a 1 -x {2.0 3.0 8 ------- null}
r -t 0.536413333333333 -s 2 -d 3 -p tcp -e 1040 -c 1 -i 8 -a 1 -x {2.0 3.0 5 ------- null}
+ -t 0.536413333333333 -s 3 -d 2 -p ack -e 40 -c 1 -i 14 -a 1 -x {3.0 2.0 5 ------- null}
- -t 0.536413333333333 -s 3 -d 2 -p ack -e 40 -c 1 -i 14 -a 1 -x {3.0 2.0 5 ------- null}
h -t 0.536413333333333 -s 3 -d 2 -p ack -e 40 -c 1 -i 14 -a 1 -x {3.0 2.0 -1 ------- null}
r -t 0.538746666666667 -s 3 -d 2 -p ack -e 40 -c 1 -i 11 -a 1 -x {3.0 2.0 4 ------- null}
+ -t 0.538746666666667 -s 2 -d 3 -p tcp -e 1040 -c 1 -i 15 -a 1 -x {2.0 3.0 9 ------- null}
+ -t 0.538746666666667 -s 2 -d 3 -p tcp -e 1040 -c 1 -i 16 -a 1 -x {2.0 3.0 10 ------- null}
- -t 0.538746666666667 -s 2 -d 3 -p tcp -e 1040 -c 1 -i 13 -a 1 -x {2.0 3.0 8 ------- null}
h -t 0.538746666666667 -s 2 -d 3 -p tcp -e 1040 -c 1 -i 13 -a 1 -x {2.0 3.0 -1 ------- null}
r -t 0.539186666666667 -s 2 -d 3 -p tcp -e 1040 -c 1 -i 9 -a 1 -x {2.0 3.0 6 ------- null}
+ -t 0.539186666666667 -s 3 -d 2 -p ack -e 40 -c 1 -i 17 -a 1 -x {3.0 2.0 6 ------- null}
- -t 0.539186666666667 -s 3 -d 2 -p ack -e 40 -c 1 -i 17 -a 1 -x {3.0 2.0 6 ------- null}
h -t 0.539186666666667 -s 3 -d 2 -p ack -e 40 -c 1 -i 17 -a 1 -x {3.0 2.0 -1 ------- null}
r -t 0.54152 -s 3 -d 2 -p ack -e 40 -c 1 -i 14 -a 1 -x {3.0 2.0 5 ------- null}
+ -t 0.54152 -s 2 -d 3 -p tcp -e 1040 -c 1 -i 18 -a 1 -x {2.0 3.0 11 ------- null}
+ -t 0.54152 -s 2 -d 3 -p tcp -e 1040 -c 1 -i 19 -a 1 -x {2.0 3.0 12 ------- null}
- -t 0.54152 -s 2 -d 3 -p tcp -e 1040 -c 1 -i 15 -a 1 -x {2.0 3.0 9 ------- null}
h -t 0.54152 -s 2 -d 3 -p tcp -e 1040 -c 1 -i 15 -a 1 -x {2.0 3.0 -1 ------- null}
r -t 0.543746666666667 -s 2 -d 3 -p tcp -e 1040 -c 1 -i 12 -a 1 -x {2.0 3.0 7 ------- null}
+ -t 0.543746666666667 -s 3 -d 2 -p ack -e 40 -c 1 -i 20 -a 1 -x {3.0 2.0 7 ------- null}
- -t 0.543746666666667 -s 3 -d 2 -p ack -e 40 -c 1 -i 20 -a 1 -x {3.0 2.0 7 ------- null}
h -t 0.543746666666667 -s 3 -d 2 -p ack -e 40 -c 1 -i 20 -a 1 -x {3.0 2.0 -1 ------- null}
r -t 0.544293333333333 -s 3 -d 2 -p ack -e 40 -c 1 -i 17 -a 1 -x {3.0 2.0 6 ------- null}
+ -t 0.544293333333333 -s 2 -d 3 -p tcp -e 1040 -c 1 -i 21 -a 1 -x {2.0 3.0 13 ------- null}
+ -t 0.544293333333333 -s 2 -d 3 -p tcp -e 1040 -c 1 -i 22 -a 1 -x {2.0 3.0 14 ------- null}
- -t 0.544293333333333 -s 2 -d 3 -p tcp -e 1040 -c 1 -i 16 -a 1 -x {2.0 3.0 10 ------- null}
h -t 0.544293333333333 -s 2 -d 3 -p tcp -e 1040 -c 1 -i 16 -a 1 -x {2.0 3.0 -1 ------- null}
r -t 0.54652 -s 2 -d 3 -p tcp -e 1040 -c 1 -i 13 -a 1 -x {2.0 3.0 8 ------- null}
+ -t 0.54652 -s 3 -d 2 -p ack -e 40 -c 1 -i 23 -a 1 -x {3.0 2.0 8 ------- null}
- -t 0.54652 -s 3 -d 2 -p ack -e 40 -c 1 -i 23 -a 1 -x {3.0 2.0 8 ------- null}
h -t 0.54652 -s 3 -d 2 -p ack -e 40 -c 1 -i 23 -a 1 -x {3.0 2.0 -1 ------- null}
- -t 0.547066666666667 -s 2 -d 3 -p tcp -e 1040 -c 1 -i 18 -a 1 -x {2.0 3.0 11 ------- null}
h -t 0.547066666666667 -s 2 -d 3 -p tcp -e 1040 -c 1 -i 18 -a 1 -x {2.0 3.0 -1 ------- null}
r -t 0.548853333333333 -s 3 -d 2 -p ack -e 40 -c 1 -i 20 -a 1 -x {3.0 2.0 7 ------- null}
+ -t 0.548853333333333 -s 2 -d 3 -p tcp -e 1040 -c 1 -i 24 -a 1 -x {2.0 3.0 15 ------- null}
+ -t 0.548853333333333 -s 2 -d 3 -p tcp -e 1040 -c 1 -i 25 -a 1 -x {2.0 3.0 16 ------- null}
r -t 0.549293333333333 -s 2 -d 3 -p tcp -e 1040 -c 1 -i 15 -a 1 -x {2.0 3.0 9 ------- null}
+ -t 0.549293333333333 -s 3 -d 2 -p ack -e 40 -c 1 -i 26 -a 1 -x {3.0 2.0 9 ------- null}
- -t 0.549293333333333 -s 3 -d 2 -p ack -e 40 -c 1 -i 26 -a 1 -x {3.0 2.0 9 ------- null}
h -t 0.549293333333333 -s 3 -d 2 -p ack -e 40 -c 1 -i 26 -a 1 -x {3.0 2.0 -1 ------- null}
- -t 0.54984 -s 2 -d 3 -p tcp -e 1040 -c 1 -i 19 -a 1 -x {2.0 3.0 12 ------- null}
h -t 0.54984 -s 2 -d 3 -p tcp -e 1040 -c 1 -i 19 -a 1 -x {2.0 3.0 -1 ------- null}
r -t 0.551626666666667 -s 3 -d 2 -p ack -e 40 -c 1 -i 23 -a 1 -x {3.0 2.0 8 ------- null}
+ -t 0.551626666666667 -s 2 -d 3 -p tcp -e 1040 -c 1 -i 27 -a 1 -x {2.0 3.0 17 ------- null}
+ -t 0.551626666666667 -s 2 -d 3 -p tcp -e 1040 -c 1 -i 28 -a 1 -x {2.0 3.0 18 ------- null}
r -t 0.552066666666667 -s 2 -d 3 -p tcp -e 1040 -c 1 -i 16 -a 1 -x {2.0 3.0 10 ------- null}
+ -t 0.552066666666667 -s 3 -d 2 -p ack -e 40 -c 1 -i 29 -a 1 -x {3.0 2.0 10 ------- null}
- -t 0.552066666666667 -s 3 -d 2 -p ack -e 40 -c 1 -i 29 -a 1 -x {3.0 2.0 10 ------- null}
h -t 0.552066666666667 -s 3 -d 2 -p ack -e 40 -c 1 -i 29 -a 1 -x {3.0 2.0 -1 ------- null}
- -t 0.552613333333333 -s 2 -d 3 -p tcp -e 1040 -c 1 -i 21 -a 1 -x {2.0 3.0 13 ------- null}
h -t 0.552613333333333 -s 2 -d 3 -p tcp -e 1040 -c 1 -i 21 -a 1 -x {2.0 3.0 -1 ------- null}
r -t 0.5544 -s 3 -d 2 -p ack -e 40 -c 1 -i 26 -a 1 -x {3.0 2.0 9 ------- null}
+ -t 0.5544 -s 2 -d 3 -p tcp -e 1040 -c 1 -i 30 -a 1 -x {2.0 3.0 19 ------- null}
+ -t 0.5544 -s 2 -d 3 -p tcp -e 1040 -c 1 -i 31 -a 1 -x {2.0 3.0 20 ------- null}
r -t 0.55484 -s 2 -d 3 -p tcp -e 1040 -c 1 -i 18 -a 1 -x {2.0 3.0 11 ------- null}
+ -t 0.55484 -s 3 -d 2 -p ack -e 40 -c 1 -i 32 -a 1 -x {3.0 2.0 11 ------- null}
- -t 0.55484 -s 3 -d 2 -p ack -e 40 -c 1 -i 32 -a 1 -x {3.0 2.0 11 ------- null}
h -t 0.55484 -s 3 -d 2 -p ack -e 40 -c 1 -i 32 -a 1 -x {3.0 2.0 -1 ------- null}
- -t 0.555386666666666 -s 2 -d 3 -p tcp -e 1040 -c 1 -i 22 -a 1 -x {2.0 3.0 14 ------- null}
h -t 0.555386666666666 -s 2 -d 3 -p tcp -e 1040 -c 1 -i 22 -a 1 -x {2.0 3.0 -1 ------- null}
r -t 0.557173333333333 -s 3 -d 2 -p ack -e 40 -c 1 -i 29 -a 1 -x {3.0 2.0 10 ------- null}
+ -t 0.557173333333333 -s 2 -d 3 -p tcp -e 1040 -c 1 -i 33 -a 1 -x {2.0 3.0 21 ------- null}
+ -t 0.557173333333333 -s 2 -d 3 -p tcp -e 1040 -c 1 -i 34 -a 1 -x {2.0 3.0 22 ------- null}
r -t 0.557613333333333 -s 2 -d 3 -p tcp -e 1040 -c 1 -i 19 -a 1 -x {2.0 3.0 12 ------- null}
+ -t 0.557613333333333 -s 3 -d 2 -p ack -e 40 -c 1 -i 35 -a 1 -x {3.0 2.0 12 ------- null}
- -t 0.557613333333333 -s 3 -d 2 -p ack -e 40 -c 1 -i 35 -a 1 -x {3.0 2.0 12 ------- null}
h -t 0.557613333333333 -s 3 -d 2 -p ack -e 40 -c 1 -i 35 -a 1 -x {3.0 2.0 -1 ------- null}
- -t 0.55816 -s 2 -d 3 -p tcp -e 1040 -c 1 -i 24 -a 1 -x {2.0 3.0 15 ------- null}
h -t 0.55816 -s 2 -d 3 -p tcp -e 1040 -c 1 -i 24 -a 1 -x {2.0 3.0 -1 ------- null}
r -t 0.559946666666667 -s 3 -d 2 -p ack -e 40 -c 1 -i 32 -a 1 -x {3.0 2.0 11 ------- null}
+ -t 0.559946666666667 -s 2 -d 3 -p tcp -e 1040 -c 1 -i 36 -a 1 -x {2.0 3.0 23 ------- null}
+ -t 0.559946666666667 -s 2 -d 3 -p tcp -e 1040 -c 1 -i 37 -a 1 -x {2.0 3.0 24 ------- null}
r -t 0.560386666666666 -s 2 -d 3 -p tcp -e 1040 -c 1 -i 21 -a 1 -x {2.0 3.0 13 ------- null}
+ -t 0.560386666666666 -s 3 -d 2 -p ack -e 40 -c 1 -i 38 -a 1 -x {3.0 2.0 13 ------- null}
- -t 0.560386666666666 -s 3 -d 2 -p ack -e 40 -c 1 -i 38 -a 1 -x {3.0 2.0 13 ------- null}
h -t 0.560386666666666 -s 3 -d 2 -p ack -e 40 -c 1 -i 38 -a 1 -x {3.0 2.0 -1 ------- null}
- -t 0.560933333333333 -s 2 -d 3 -p tcp -e 1040 -c 1 -i 25 -a 1 -x {2.0 3.0 16 ------- null}
h -t 0.560933333333333 -s 2 -d 3 -p tcp -e 1040 -c 1 -i 25 -a 1 -x {2.0 3.0 -1 ------- null}
r -t 0.56272 -s 3 -d 2 -p ack -e 40 -c 1 -i 35 -a 1 -x {3.0 2.0 12 ------- null}
+ -t 0.56272 -s 2 -d 3 -p tcp -e 1040 -c 1 -i 39 -a 1 -x {2.0 3.0 25 ------- null}
+ -t 0.56272 -s 2 -d 3 -p tcp -e 1040 -c 1 -i 40 -a 1 -x {2.0 3.0 26 ------- null}
r -t 0.56316 -s 2 -d 3 -p tcp -e 1040 -c 1 -i 22 -a 1 -x {2.0 3.0 14 ------- null}
+ -t 0.56316 -s 3 -d 2 -p ack -e 40 -c 1 -i 41 -a 1 -x {3.0 2.0 14 ------- null}
- -t 0.56316 -s 3 -d 2 -p ack -e 40 -c 1 -i 41 -a 1 -x {3.0 2.0 14 ------- null}
h -t 0.56316 -s 3 -d 2 -p ack -e 40 -c 1 -i 41 -a 1 -x {3.0 2.0 -1 ------- null}
- -t 0.563706666666666 -s 2 -d 3 -p tcp -e 1040 -c 1 -i 27 -a 1 -x {2.0 3.0 17 ------- null}
h -t 0.563706666666666 -s 2 -d 3 -p tcp -e 1040 -c 1 -i 27 -a 1 -x {2.0 3.0 -1 ------- null}
r -t 0.565493333333333 -s 3 -d 2 -p ack -e 40 -c 1 -i 38 -a 1 -x {3.0 2.0 13 ------- null}
+ -t 0.565493333333333 -s 2 -d 3 -p tcp -e 1040 -c 1 -i 42 -a 1 -x {2.0 3.0 27 ------- null}
+ -t 0.565493333333333 -s 2 -d 3 -p tcp -e 1040 -c 1 -i 43 -a 1 -x {2.0 3.0 28 ------- null}
r -t 0.565933333333333 -s 2 -d 3 -p tcp -e 1040 -c 1 -i 24 -a 1 -x {2.0 3.0 15 ------- null}
+ -t 0.565933333333333 -s 3 -d 2 -p ack -e 40 -c 1 -i 44 -a 1 -x {3.0 2.0 15 ------- null}
- -t 0.565933333333333 -s 3 -d 2 -p ack -e 40 -c 1 -i 44 -a 1 -x {3.0 2.0 15 ------- null}
h -t 0.565933333333333 -s 3 -d 2 -p ack -e 40 -c 1 -i 44 -a 1 -x {3.0 2.0 -1 ------- null}
- -t 0.56648 -s 2 -d 3 -p tcp -e 1040 -c 1 -i 28 -a 1 -x {2.0 3.0 18 ------- null}
h -t 0.56648 -s 2 -d 3 -p tcp -e 1040 -c 1 -i 28 -a 1 -x {2.0 3.0 -1 ------- null}
r -t 0.568266666666666 -s 3 -d 2 -p ack -e 40 -c 1 -i 41 -a 1 -x {3.0 2.0 14 ------- null}
+ -t 0.568266666666666 -s 2 -d 3 -p tcp -e 1040 -c 1 -i 45 -a 1 -x {2.0 3.0 29 ------- null}
+ -t 0.568266666666666 -s 2 -d 3 -p tcp -e 1040 -c 1 -i 46 -a 1 -x {2.0 3.0 30 ------- null}
r -t 0.568706666666666 -s 2 -d 3 -p tcp -e 1040 -c 1 -i 25 -a 1 -x {2.0 3.0 16 ------- null}
+ -t 0.568706666666666 -s 3 -d 2 -p ack -e 40 -c 1 -i 47 -a 1 -x {3.0 2.0 16 ------- null}
- -t 0.568706666666666 -s 3 -d 2 -p ack -e 40 -c 1 -i 47 -a 1 -x {3.0 2.0 16 ------- null}
h -t 0.568706666666666 -s 3 -d 2 -p ack -e 40 -c 1 -i 47 -a 1 -x {3.0 2.0 -1 ------- null}
- -t 0.569253333333333 -s 2 -d 3 -p tcp -e 1040 -c 1 -i 30 -a 1 -x {2.0 3.0 19 ------- null}
h -t 0.569253333333333 -s 2 -d 3 -p tcp -e 1040 -c 1 -i 30 -a 1 -x {2.0 3.0 -1 ------- null}
r -t 0.57104 -s 3 -d 2 -p ack -e 40 -c 1 -i 44 -a 1 -x {3.0 2.0 15 ------- null}
+ -t 0.57104 -s 2 -d 3 -p tcp -e 1040 -c 1 -i 48 -a 1 -x {2.0 3.0 31 ------- null}
+ -t 0.57104 -s 2 -d 3 -p tcp -e 1040 -c 1 -i 49 -a 1 -x {2.0 3.0 32 ------- null}
r -t 0.57148 -s 2 -d 3 -p tcp -e 1040 -c 1 -i 27 -a 1 -x {2.0 3.0 17 ------- null}
+ -t 0.57148 -s 3 -d 2 -p ack -e 40 -c 1 -i 50 -a 1 -x {3.0 2.0 17 ------- null}
- -t 0.57148 -s 3 -d 2 -p ack -e 40 -c 1 -i 50 -a 1 -x {3.0 2.0 17 ------- null}
h -t 0.57148 -s 3 -d 2 -p ack -e 40 -c 1 -i 50 -a 1 -x {3.0 2.0 -1 ------- null}
- -t 0.572026666666666 -s 2 -d 3 -p tcp -e 1040 -c 1 -i 31 -a 1 -x {2.0 3.0 20 ------- null}
h -t 0.572026666666666 -s 2 -d 3 -p tcp -e 1040 -c 1 -i 31 -a 1 -x {2.0 3.0 -1 ------- null}
r -t 0.573813333333333 -s 3 -d 2 -p ack -e 40 -c 1 -i 47 -a 1 -x {3.0 2.0 16 ------- null}
+ -t 0.573813333333333 -s 2 -d 3 -p tcp -e 1040 -c 1 -i 51 -a 1 -x {2.0 3.0 33 ------- null}
+ -t 0.573813333333333 -s 2 -d 3 -p tcp -e 1040 -c 1 -i 52 -a 1 -x {2.0 3.0 34 ------- null}
r -t 0.574253333333333 -s 2 -d 3 -p tcp -e 1040 -c 1 -i 28 -a 1 -x {2.0 3.0 18 ------- null}
+ -t 0.574253333333333 -s 3 -d 2 -p ack -e 40 -c 1 -i 53 -a 1 -x {3.0 2.0 18 ------- null}
- -t 0.574253333333333 -s 3 -d 2 -p ack -e 40 -c 1 -i 53 -a 1 -x {3.0 2.0 18 ------- null}
h -t 0.574253333333333 -s 3 -d 2 -p ack -e 40 -c 1 -i 53 -a 1 -x {3.0 2.0 -1 ------- null}
- -t 0.5748 -s 2 -d 3 -p tcp -e 1040 -c 1 -i 33 -a 1 -x {2.0 3.0 21 ------- null}
h -t 0.5748 -s 2 -d 3 -p tcp -e 1040 -c 1 -i 33 -a 1 -x {2.0 3.0 -1 ------- null}
r -t 0.576586666666666 -s 3 -d 2 -p ack -e 40 -c 1 -i 50 -a 1 -x {3.0 2.0 17 ------- null}
+ -t 0.576586666666666 -s 2 -d 3 -p tcp -e 1040 -c 1 -i 54 -a 1 -x {2.0 3.0 35 ------- null}
+ -t 0.576586666666666 -s 2 -d 3 -p tcp -e 1040 -c 1 -i 55 -a 1 -x {2.0 3.0 36 ------- null}
r -t 0.577026666666666 -s 2 -d 3 -p tcp -e 1040 -c 1 -i 30 -a 1 -x {2.0 3.0 19 ------- null}
+ -t 0.577026666666666 -s 3 -d 2 -p ack -e 40 -c 1 -i 56 -a 1 -x {3.0 2.0 19 ------- null}
- -t 0.577026666666666 -s 3 -d 2 -p ack -e 40 -c 1 -i 56 -a 1 -x {3.0 2.0 19 ------- null}
h -t 0.577026666666666 -s 3 -d 2 -p ack -e 40 -c 1 -i 56 -a 1 -x {3.0 2.0 -1 ------- null}
- -t 0.577573333333333 -s 2 -d 3 -p tcp -e 1040 -c 1 -i 34 -a 1 -x {2.0 3.0 22 ------- null}
h -t 0.577573333333333 -s 2 -d 3 -p tcp -e 1040 -c 1 -i 34 -a 1 -x {2.0 3.0 -1 ------- null}
r -t 0.57936 -s 3 -d 2 -p ack -e 40 -c 1 -i 53 -a 1 -x {3.0 2.0 18 ------- null}
+ -t 0.57936 -s 2 -d 3 -p tcp -e 1040 -c 1 -i 57 -a 1 -x {2.0 3.0 37 ------- null}
+ -t 0.57936 -s 2 -d 3 -p tcp -e 1040 -c 1 -i 58 -a 1 -x {2.0 3.0 38 ------- null}
r -t 0.5798 -s 2 -d 3 -p tcp -e 1040 -c 1 -i 31 -a 1 -x {2.0 3.0 20 ------- null}
+ -t 0.5798 -s 3 -d 2 -p ack -e 40 -c 1 -i 59 -a 1 -x {3.0 2.0 20 ------- null}
- -t 0.5798 -s 3 -d 2 -p ack -e 40 -c 1 -i 59 -a 1 -x {3.0 2.0 20 ------- null}
h -t 0.5798 -s 3 -d 2 -p ack -e 40 -c 1 -i 59 -a 1 -x {3.0 2.0 -1 ------- null}
- -t 0.580346666666666 -s 2 -d 3 -p tcp -e 1040 -c 1 -i 36 -a 1 -x {2.0 3.0 23 ------- null}
h -t 0.580346666666666 -s 2 -d 3 -p tcp -e 1040 -c 1 -i 36 -a 1 -x {2.0 3.0 -1 ------- null}
r -t 0.582133333333333 -s 3 -d 2 -p ack -e 40 -c 1 -i 56 -a 1 -x {3.0 2.0 19 ------- null}
+ -t 0.582133333333333 -s 2 -d 3 -p tcp -e 1040 -c 1 -i 60 -a 1 -x {2.0 3.0 39 ------- null}
r -t 0.582573333333333 -s 2 -d 3 -p tcp -e 1040 -c 1 -i 33 -a 1 -x {2.0 3.0 21 ------- null}
+ -t 0.582573333333333 -s 3 -d 2 -p ack -e 40 -c 1 -i 61 -a 1 -x {3.0 2.0 21 ------- null}
- -t 0.582573333333333 -s 3 -d 2 -p ack -e 40 -c 1 -i 61 -a 1 -x {3.0 2.0 21 ------- null}
h -t 0.582573333333333 -s 3 -d 2 -p ack -e 40 -c 1 -i 61 -a 1 -x {3.0 2.0 -1 ------- null}
- -t 0.583119999999999 -s 2 -d 3 -p tcp -e 1040 -c 1 -i 37 -a 1 -x {2.0 3.0 24 ------- null}
h -t 0.583119999999999 -s 2 -d 3 -p tcp -e 1040 -c 1 -i 37 -a 1 -x {2.0 3.0 -1 ------- null}
r -t 0.584906666666666 -s 3 -d 2 -p ack -e 40 -c 1 -i 59 -a 1 -x {3.0 2.0 20 ------- null}
+ -t 0.584906666666666 -s 2 -d 3 -p tcp -e 1040 -c 1 -i 62 -a 1 -x {2.0 3.0 40 ------- null}
r -t 0.585346666666666 -s 2 -d 3 -p tcp -e 1040 -c 1 -i 34 -a 1 -x {2.0 3.0 22 ------- null}
+ -t 0.585346666666666 -s 3 -d 2 -p ack -e 40 -c 1 -i 63 -a 1 -x {3.0 2.0 22 ------- null}
- -t 0.585346666666666 -s 3 -d 2 -p ack -e 40 -c 1 -i 63 -a 1 -x {3.0 2.0 22 ------- null}
h -t 0.585346666666666 -s 3 -d 2 -p ack -e 40 -c 1 -i 63 -a 1 -x {3.0 2.0 -1 ------- null}
- -t 0.585893333333333 -s 2 -d 3 -p tcp -e 1040 -c 1 -i 39 -a 1 -x {2.0 3.0 25 ------- null}
h -t 0.585893333333333 -s 2 -d 3 -p tcp -e 1040 -c 1 -i 39 -a 1 -x {2.0 3.0 -1 ------- null}
r -t 0.58768 -s 3 -d 2 -p ack -e 40 -c 1 -i 61 -a 1 -x {3.0 2.0 21 ------- null}
+ -t 0.58768 -s 2 -d 3 -p tcp -e 1040 -c 1 -i 64 -a 1 -x {2.0 3.0 41 ------- null}
r -t 0.588119999999999 -s 2 -d 3 -p tcp -e 1040 -c 1 -i 36 -a 1 -x {2.0 3.0 23 ------- null}
+ -t 0.588119999999999 -s 3 -d 2 -p ack -e 40 -c 1 -i 65 -a 1 -x {3.0 2.0 23 ------- null}
- -t 0.588119999999999 -s 3 -d 2 -p ack -e 40 -c 1 -i 65 -a 1 -x {3.0 2.0 23 ------- null}
h -t 0.588119999999999 -s 3 -d 2 -p ack -e 40 -c 1 -i 65 -a 1 -x {3.0 2.0 -1 ------- null}
- -t 0.588666666666666 -s 2 -d 3 -p tcp -e 1040 -c 1 -i 40 -a 1 -x {2.0 3.0 26 ------- null}
h -t 0.588666666666666 -s 2 -d 3 -p tcp -e 1040 -c 1 -i 40 -a 1 -x {2.0 3.0 -1 ------- null}
r -t 0.590453333333333 -s 3 -d 2 -p ack -e 40 -c 1 -i 63 -a 1 -x {3.0 2.0 22 ------- null}
+ -t 0.590453333333333 -s 2 -d 3 -p tcp -e 1040 -c 1 -i 66 -a 1 -x {2.0 3.0 42 ------- null}
r -t 0.590893333333333 -s 2 -d 3 -p tcp -e 1040 -c 1 -i 37 -a 1 -x {2.0 3.0 24 ------- null}
+ -t 0.590893333333333 -s 3 -d 2 -p ack -e 40 -c 1 -i 67 -a 1 -x {3.0 2.0 24 ------- null}
- -t 0.590893333333333 -s 3 -d 2 -p ack -e 40 -c 1 -i 67 -a 1 -x {3.0 2.0 24 ------- null}
h -t 0.590893333333333 -s 3 -d 2 -p ack -e 40 -c 1 -i 67 -a 1 -x {3.0 2.0 -1 ------- null}
- -t 0.591439999999999 -s 2 -d 3 -p tcp -e 1040 -c 1 -i 42 -a 1 -x {2.0 3.0 27 ------- null}
h -t 0.591439999999999 -s 2 -d 3 -p tcp -e 1040 -c 1 -i 42 -a 1 -x {2.0 3.0 -1 ------- null}
r -t 0.593226666666666 -s 3 -d 2 -p ack -e 40 -c 1 -i 65 -a 1 -x {3.0 2.0 23 ------- null}
+ -t 0.593226666666666 -s 2 -d 3 -p tcp -e 1040 -c 1 -i 68 -a 1 -x {2.0 3.0 43 ------- null}
r -t 0.593666666666666 -s 2 -d 3 -p tcp -e 1040 -c 1 -i 39 -a 1 -x {2.0 3.0 25 ------- null}
+ -t 0.593666666666666 -s 3 -d 2 -p ack -e 40 -c 1 -i 69 -a 1 -x {3.0 2.0 25 ------- null}
- -t 0.593666666666666 -s 3 -d 2 -p ack -e 40 -c 1 -i 69 -a 1 -x {3.0 2.0 25 ------- null}
h -t 0.593666666666666 -s 3 -d 2 -p ack -e 40 -c 1 -i 69 -a 1 -x {3.0 2.0 -1 ------- null}
- -t 0.594213333333333 -s 2 -d 3 -p tcp -e 1040 -c 1 -i 43 -a 1 -x {2.0 3.0 28 ------- null}
h -t 0.594213333333333 -s 2 -d 3 -p tcp -e 1040 -c 1 -i 43 -a 1 -x {2.0 3.0 -1 ------- null}
r -t 0.595999999999999 -s 3 -d 2 -p ack -e 40 -c 1 -i 67 -a 1 -x {3.0 2.0 24 ------- null}
+ -t 0.595999999999999 -s 2 -d 3 -p tcp -e 1040 -c 1 -i 70 -a 1 -x {2.0 3.0 44 ------- null}
r -t 0.596439999999999 -s 2 -d 3 -p tcp -e 1040 -c 1 -i 40 -a 1 -x {2.0 3.0 26 ------- null}
+ -t 0.596439999999999 -s 3 -d 2 -p ack -e 40 -c 1 -i 71 -a 1 -x {3.0 2.0 26 ------- null}
- -t 0.596439999999999 -s 3 -d 2 -p ack -e 40 -c 1 -i 71 -a 1 -x {3.0 2.0 26 ------- null}
h -t 0.596439999999999 -s 3 -d 2 -p ack -e 40 -c 1 -i 71 -a 1 -x {3.0 2.0 -1 ------- null}
- -t 0.596986666666666 -s 2 -d 3 -p tcp -e 1040 -c 1 -i 45 -a 1 -x {2.0 3.0 29 ------- null}
h -t 0.596986666666666 -s 2 -d 3 -p tcp -e 1040 -c 1 -i 45 -a 1 -x {2.0 3.0 -1 ------- null}
r -t 0.598773333333333 -s 3 -d 2 -p ack -e 40 -c 1 -i 69 -a 1 -x {3.0 2.0 25 ------- null}
+ -t 0.598773333333333 -s 2 -d 3 -p tcp -e 1040 -c 1 -i 72 -a 1 -x {2.0 3.0 45 ------- null}
r -t 0.599213333333333 -s 2 -d 3 -p tcp -e 1040 -c 1 -i 42 -a 1 -x {2.0 3.0 27 ------- null}
+ -t 0.599213333333333 -s 3 -d 2 -p ack -e 40 -c 1 -i 73 -a 1 -x {3.0 2.0 27 ------- null}
- -t 0.599213333333333 -s 3 -d 2 -p ack -e 40 -c 1 -i 73 -a 1 -x {3.0 2.0 27 ------- null}
h -t 0.599213333333333 -s 3 -d 2 -p ack -e 40 -c 1 -i 73 -a 1 -x {3.0 2.0 -1 ------- null}
- -t 0.599759999999999 -s 2 -d 3 -p tcp -e 1040 -c 1 -i 46 -a 1 -x {2.0 3.0 30 ------- null}
h -t 0.599759999999999 -s 2 -d 3 -p tcp -e 1040 -c 1 -i 46 -a 1 -x {2.0 3.0 -1 ------- null}
r -t 0.601546666666666 -s 3 -d 2 -p ack -e 40 -c 1 -i 71 -a 1 -x {3.0 2.0 26 ------- null}
+ -t 0.601546666666666 -s 2 -d 3 -p tcp -e 1040 -c 1 -i 74 -a 1 -x {2.0 3.0 46 ------- null}
r -t 0.601986666666666 -s 2 -d 3 -p tcp -e 1040 -c 1 -i 43 -a 1 -x {2.0 3.0 28 ------- null}
+ -t 0.601986666666666 -s 3 -d 2 -p ack -e 40 -c 1 -i 75 -a 1 -x {3.0 2.0 28 ------- null}
- -t 0.601986666666666 -s 3 -d 2 -p ack -e 40 -c 1 -i 75 -a 1 -x {3.0 2.0 28 ------- null}
h -t 0.601986666666666 -s 3 -d 2 -p ack -e 40 -c 1 -i 75 -a 1 -x {3.0 2.0 -1 ------- null}
- -t 0.602533333333332 -s 2 -d 3 -p tcp -e 1040 -c 1 -i 48 -a 1 -x {2.0 3.0 31 ------- null}
h -t 0.602533333333332 -s 2 -d 3 -p tcp -e 1040 -c 1 -i 48 -a 1 -x {2.0 3.0 -1 ------- null}
r -t 0.604319999999999 -s 3 -d 2 -p ack -e 40 -c 1 -i 73 -a 1 -x {3.0 2.0 27 ------- null}
+ -t 0.604319999999999 -s 2 -d 3 -p tcp -e 1040 -c 1 -i 76 -a 1 -x {2.0 3.0 47 ------- null}
r -t 0.604759999999999 -s 2 -d 3 -p tcp -e 1040 -c 1 -i 45 -a 1 -x {2.0 3.0 29 ------- null}
+ -t 0.604759999999999 -s 3 -d 2 -p ack -e 40 -c 1 -i 77 -a 1 -x {3.0 2.0 29 ------- null}
- -t 0.604759999999999 -s 3 -d 2 -p ack -e 40 -c 1 -i 77 -a 1 -x {3.0 2.0 29 ------- null}
h -t 0.604759999999999 -s 3 -d 2 -p ack -e 40 -c 1 -i 77 -a 1 -x {3.0 2.0 -1 ------- null}
- -t 0.605306666666666 -s 2 -d 3 -p tcp -e 1040 -c 1 -i 49 -a 1 -x {2.0 3.0 32 ------- null}
h -t 0.605306666666666 -s 2 -d 3 -p tcp -e 1040 -c 1 -i 49 -a 1 -x {2.0 3.0 -1 ------- null}
r -t 0.607093333333333 -s 3 -d 2 -p ack -e 40 -c 1 -i 75 -a 1 -x {3.0 2.0 28 ------- null}
+ -t 0.607093333333333 -s 2 -d 3 -p tcp -e 1040 -c 1 -i 78 -a 1 -x {2.0 3.0 48 ------- null}
r -t 0.607533333333332 -s 2 -d 3 -p tcp -e 1040 -c 1 -i 46 -a 1 -x {2.0 3.0 30 ------- null}
+ -t 0.607533333333332 -s 3 -d 2 -p ack -e 40 -c 1 -i 79 -a 1 -x {3.0 2.0 30 ------- null}
- -t 0.607533333333332 -s 3 -d 2 -p ack -e 40 -c 1 -i 79 -a 1 -x {3.0 2.0 30 ------- null}
h -t 0.607533333333332 -s 3 -d 2 -p ack -e 40 -c 1 -i 79 -a 1 -x {3.0 2.0 -1 ------- null}
- -t 0.608079999999999 -s 2 -d 3 -p tcp -e 1040 -c 1 -i 51 -a 1 -x {2.0 3.0 33 ------- null}
h -t 0.608079999999999 -s 2 -d 3 -p tcp -e 1040 -c 1 -i 51 -a 1 -x {2.0 3.0 -1 ------- null}
r -t 0.609866666666666 -s 3 -d 2 -p ack -e 40 -c 1 -i 77 -a 1 -x {3.0 2.0 29 ------- null}
+ -t 0.609866666666666 -s 2 -d 3 -p tcp -e 1040 -c 1 -i 80 -a 1 -x {2.0 3.0 49 ------- null}
r -t 0.610306666666666 -s 2 -d 3 -p tcp -e 1040 -c 1 -i 48 -a 1 -x {2.0 3.0 31 ------- null}
+ -t 0.610306666666666 -s 3 -d 2 -p ack -e 40 -c 1 -i 81 -a 1 -x {3.0 2.0 31 ------- null}
- -t 0.610306666666666 -s 3 -d 2 -p ack -e 40 -c 1 -i 81 -a 1 -x {3.0 2.0 31 ------- null}
h -t 0.610306666666666 -s 3 -d 2 -p ack -e 40 -c 1 -i 81 -a 1 -x {3.0 2.0 -1 ------- null}
- -t 0.610853333333332 -s 2 -d 3 -p tcp -e 1040 -c 1 -i 52 -a 1 -x {2.0 3.0 34 ------- null}
h -t 0.610853333333332 -s 2 -d 3 -p tcp -e 1040 -c 1 -i 52 -a 1 -x {2.0 3.0 -1 ------- null}
r -t 0.612639999999999 -s 3 -d 2 -p ack -e 40 -c 1 -i 79 -a 1 -x {3.0 2.0 30 ------- null}
+ -t 0.612639999999999 -s 2 -d 3 -p tcp -e 1040 -c 1 -i 82 -a 1 -x {2.0 3.0 50 ------- null}
r -t 0.613079999999999 -s 2 -d 3 -p tcp -e 1040 -c 1 -i 49 -a 1 -x {2.0 3.0 32 ------- null}
+ -t 0.613079999999999 -s 3 -d 2 -p ack -e 40 -c 1 -i 83 -a 1 -x {3.0 2.0 32 ------- null}
- -t 0.613079999999999 -s 3 -d 2 -p ack -e 40 -c 1 -i 83 -a 1 -x {3.0 2.0 32 ------- null}
h -t 0.613079999999999 -s 3 -d 2 -p ack -e 40 -c 1 -i 83 -a 1 -x {3.0 2.0 -1 ------- null}
- -t 0.613626666666666 -s 2 -d 3 -p tcp -e 1040 -c 1 -i 54 -a 1 -x {2.0 3.0 35 ------- null}
h -t 0.613626666666666 -s 2 -d 3 -p tcp -e 1040 -c 1 -i 54 -a 1 -x {2.0 3.0 -1 ------- null}
r -t 0.615413333333332 -s 3 -d 2 -p ack -e 40 -c 1 -i 81 -a 1 -x {3.0 2.0 31 ------- null}
+ -t 0.615413333333332 -s 2 -d 3 -p tcp -e 1040 -c 1 -i 84 -a 1 -x {2.0 3.0 51 ------- null}
r -t 0.615853333333332 -s 2 -d 3 -p tcp -e 1040 -c 1 -i 51 -a 1 -x {2.0 3.0 33 ------- null}
+ -t 0.615853333333332 -s 3 -d 2 -p ack -e 40 -c 1 -i 85 -a 1 -x {3.0 2.0 33 ------- null}
- -t 0.615853333333332 -s 3 -d 2 -p ack -e 40 -c 1 -i 85 -a 1 -x {3.0 2.0 33 ------- null}
h -t 0.615853333333332 -s 3 -d 2 -p ack -e 40 -c 1 -i 85 -a 1 -x {3.0 2.0 -1 ------- null}
- -t 0.616399999999999 -s 2 -d 3 -p tcp -e 1040 -c 1 -i 55 -a 1 -x {2.0 3.0 36 ------- null}
h -t 0.616399999999999 -s 2 -d 3 -p tcp -e 1040 -c 1 -i 55 -a 1 -x {2.0 3.0 -1 ------- null}
r -t 0.618186666666666 -s 3 -d 2 -p ack -e 40 -c 1 -i 83 -a 1 -x {3.0 2.0 32 ------- null}
+ -t 0.618186666666666 -s 2 -d 3 -p tcp -e 1040 -c 1 -i 86 -a 1 -x {2.0 3.0 52 ------- null}
r -t 0.618626666666666 -s 2 -d 3 -p tcp -e 1040 -c 1 -i 52 -a 1 -x {2.0 3.0 34 ------- null}
+ -t 0.618626666666666 -s 3 -d 2 -p ack -e 40 -c 1 -i 87 -a 1 -x {3.0 2.0 34 ------- null}
- -t 0.618626666666666 -s 3 -d 2 -p ack -e 40 -c 1 -i 87 -a 1 -x {3.0 2.0 34 ------- null}
h -t 0.618626666666666 -s 3 -d 2 -p ack -e 40 -c 1 -i 87 -a 1 -x {3.0 2.0 -1 ------- null}
- -t 0.619173333333332 -s 2 -d 3 -p tcp -e 1040 -c 1 -i 57 -a 1 -x {2.0 3.0 37 ------- null}
h -t 0.619173333333332 -s 2 -d 3 -p tcp -e 1040 -c 1 -i 57 -a 1 -x {2.0 3.0 -1 ------- null}
r -t 0.620959999999999 -s 3 -d 2 -p ack -e 40 -c 1 -i 85 -a 1 -x {3.0 2.0 33 ------- null}
+ -t 0.620959999999999 -s 2 -d 3 -p tcp -e 1040 -c 1 -i 88 -a 1 -x {2.0 3.0 53 ------- null}
r -t 0.621399999999999 -s 2 -d 3 -p tcp -e 1040 -c 1 -i 54 -a 1 -x {2.0 3.0 35 ------- null}
+ -t 0.621399999999999 -s 3 -d 2 -p ack -e 40 -c 1 -i 89 -a 1 -x {3.0 2.0 35 ------- null}
- -t 0.621399999999999 -s 3 -d 2 -p ack -e 40 -c 1 -i 89 -a 1 -x {3.0 2.0 35 ------- null}
h -t 0.621399999999999 -s 3 -d 2 -p ack -e 40 -c 1 -i 89 -a 1 -x {3.0 2.0 -1 ------- null}
- -t 0.621946666666666 -s 2 -d 3 -p tcp -e 1040 -c 1 -i 58 -a 1 -x {2.0 3.0 38 ------- null}
h -t 0.621946666666666 -s 2 -d 3 -p tcp -e 1040 -c 1 -i 58 -a 1 -x {2.0 3.0 -1 ------- null}
r -t 0.623733333333332 -s 3 -d 2 -p ack -e 40 -c 1 -i 87 -a 1 -x {3.0 2.0 34 ------- null}
+ -t 0.623733333333332 -s 2 -d 3 -p tcp -e 1040 -c 1 -i 90 -a 1 -x {2.0 3.0 54 ------- null}
r -t 0.624173333333332 -s 2 -d 3 -p tcp -e 1040 -c 1 -i 55 -a 1 -x {2.0 3.0 36 ------- null}
+ -t 0.624173333333332 -s 3 -d 2 -p ack -e 40 -c 1 -i 91 -a 1 -x {3.0 2.0 36 ------- null}
- -t 0.624173333333332 -s 3 -d 2 -p ack -e 40 -c 1 -i 91 -a 1 -x {3.0 2.0 36 ------- null}
h -t 0.624173333333332 -s 3 -d 2 -p ack -e 40 -c 1 -i 91 -a 1 -x {3.0 2.0 -1 ------- null}
- -t 0.624719999999999 -s 2 -d 3 -p tcp -e 1040 -c 1 -i 60 -a 1 -x {2.0 3.0 39 ------- null}
h -t 0.624719999999999 -s 2 -d 3 -p tcp -e 1040 -c 1 -i 60 -a 1 -x {2.0 3.0 -1 ------- null}
r -t 0.626506666666666 -s 3 -d 2 -p ack -e 40 -c 1 -i 89 -a 1 -x {3.0 2.0 35 ------- null}
+ -t 0.626506666666666 -s 2 -d 3 -p tcp -e 1040 -c 1 -i 92 -a 1 -x {2.0 3.0 55 ------- null}
r -t 0.626946666666666 -s 2 -d 3 -p tcp -e 1040 -c 1 -i 57 -a 1 -x {2.0 3.0 37 ------- null}
+ -t 0.626946666666666 -s 3 -d 2 -p ack -e 40 -c 1 -i 93 -a 1 -x {3.0 2.0 37 ------- null}
- -t 0.626946666666666 -s 3 -d 2 -p ack -e 40 -c 1 -i 93 -a 1 -x {3.0 2.0 37 ------- null}
h -t 0.626946666666666 -s 3 -d 2 -p ack -e 40 -c 1 -i 93 -a 1 -x {3.0 2.0 -1 ------- null}
- -t 0.627493333333332 -s 2 -d 3 -p tcp -e 1040 -c 1 -i 62 -a 1 -x {2.0 3.0 40 ------- null}
h -t 0.627493333333332 -s 2 -d 3 -p tcp -e 1040 -c 1 -i 62 -a 1 -x {2.0 3.0 -1 ------- null}
r -t 0.629279999999999 -s 3 -d 2 -p ack -e 40 -c 1 -i 91 -a 1 -x {3.0 2.0 36 ------- null}