+ 0.5 0 2 cbr 100 ------- 1 0.0 3.0 0 0
- 0.5 0 2 cbr 100 ------- 1 0.0 3.0 0 0
+ 0.501 0 2 cbr 100 ------- 1 0.0 3.0 1 1
- 0.501 0 2 cbr 100 ------- 1 0.0 3.0 1 1
+ 0.502 0 2 cbr 100 ------- 1 0.0 3.0 2 2
- 0.502 0 2 cbr 100 ------- 1 0.0 3.0 2 2
+ 0.503 0 2 cbr 100 ------- 1 0.0 3.0 3 3
- 0.503 0 2 cbr 100 ------- 1 0.0 3.0 3 3
+ 0.504 0 2 cbr 100 ------- 1 0.0 3.0 4 4
- 0.504 0 2 cbr 100 ------- 1 0.0 3.0 4 4
+ 0.505 0 2 cbr 100 ------- 1 0.0 3.0 5 5
- 0.505 0 2 cbr 100 ------- 1 0.0 3.0 5 5
+ 0.506 0 2 cbr 100 ------- 1 0.0 3.0 6 6
- 0.506 0 2 cbr 100 ------- 1 0.0 3.0 6 6
+ 0.507 0 2 cbr 100 ------- 1 0.0 3.0 7 7
- 0.507 0 2 cbr 100 ------- 1 0.0 3.0 7 7
+ 0.508 0 2 cbr 100 ------- 1 0.0 3.0 8 8
- 0.508 0 2 cbr 100 ------- 1 0.0 3.0 8 8
+ 0.509 0 2 cbr 100 ------- 1 0.0 3.0 9 9
- 0.509 0 2 cbr 100 ------- 1 0.0 3.0 9 9
+ 0.51 0 2 cbr 100 ------- 1 0.0 3.0 10 10
- 0.51 0 2 cbr 100 ------- 1 0.0 3.0 10 10
r 0.510533 0 2 cbr 100 ------- 1 0.0 3.0 0 0
+ 0.510533 2 3 cbr 100 ------- 1 0.0 3.0 0 0
- 0.510533 2 3 cbr 100 ------- 1 0.0 3.0 0 0
+ 0.511 0 2 cbr 100 ------- 1 0.0 3.0 11 11
- 0.511 0 2 cbr 100 ------- 1 0.0 3.0 11 11
r 0.511533 0 2 cbr 100 ------- 1 0.0 3.0 1 1
+ 0.511533 2 3 cbr 100 ------- 1 0.0 3.0 1 1
- 0.511533 2 3 cbr 100 ------- 1 0.0 3.0 1 1
+ 0.512 0 2 cbr 100 ------- 1 0.0 3.0 12 12
- 0.512 0 2 cbr 100 ------- 1 0.0 3.0 12 12
r 0.512533 0 2 cbr 100 ------- 1 0.0 3.0 2 2
+ 0.512533 2 3 cbr 100 ------- 1 0.0 3.0 2 2
- 0.512533 2 3 cbr 100 ------- 1 0.0 3.0 2 2
+ 0.513 0 2 cbr 100 ------- 1 0.0 3.0 13 13
- 0.513 0 2 cbr 100 ------- 1 0.0 3.0 13 13
r 0.513533 0 2 cbr 100 ------- 1 0.0 3.0 3 3
+ 0.513533 2 3 cbr 100 ------- 1 0.0 3.0 3 3
- 0.513533 2 3 cbr 100 ------- 1 0.0 3.0 3 3
+ 0.514 0 2 cbr 100 ------- 1 0.0 3.0 14 14
- 0.514 0 2 cbr 100 ------- 1 0.0 3.0 14 14
r 0.514533 0 2 cbr 100 ------- 1 0.0 3.0 4 4
+ 0.514533 2 3 cbr 100 ------- 1 0.0 3.0 4 4
- 0.514533 2 3 cbr 100 ------- 1 0.0 3.0 4 4
+ 0.515 0 2 cbr 100 ------- 1 0.0 3.0 15 15
- 0.515 0 2 cbr 100 ------- 1 0.0 3.0 15 15
r 0.515533 0 2 cbr 100 ------- 1 0.0 3.0 5 5
+ 0.515533 2 3 cbr 100 ------- 1 0.0 3.0 5 5
- 0.515533 2 3 cbr 100 ------- 1 0.0 3.0 5 5
+ 0.516 0 2 cbr 100 ------- 1 0.0 3.0 16 16
- 0.516 0 2 cbr 100 ------- 1 0.0 3.0 16 16
r 0.516533 0 2 cbr 100 ------- 1 0.0 3.0 6 6
+ 0.516533 2 3 cbr 100 ------- 1 0.0 3.0 6 6
- 0.516533 2 3 cbr 100 ------- 1 0.0 3.0 6 6
+ 0.517 0 2 cbr 100 ------- 1 0.0 3.0 17 17
- 0.517 0 2 cbr 100 ------- 1 0.0 3.0 17 17
r 0.517533 0 2 cbr 100 ------- 1 0.0 3.0 7 7
+ 0.517533 2 3 cbr 100 ------- 1 0.0 3.0 7 7
- 0.517533 2 3 cbr 100 ------- 1 0.0 3.0 7 7
+ 0.518 0 2 cbr 100 ------- 1 0.0 3.0 18 18
- 0.518 0 2 cbr 100 ------- 1 0.0 3.0 18 18
r 0.518533 0 2 cbr 100 ------- 1 0.0 3.0 8 8
+ 0.518533 2 3 cbr 100 ------- 1 0.0 3.0 8 8
- 0.518533 2 3 cbr 100 ------- 1 0.0 3.0 8 8
+ 0.519 0 2 cbr 100 ------- 1 0.0 3.0 19 19
- 0.519 0 2 cbr 100 ------- 1 0.0 3.0 19 19
r 0.519533 0 2 cbr 100 ------- 1 0.0 3.0 9 9
+ 0.519533 2 3 cbr 100 ------- 1 0.0 3.0 9 9
- 0.519533 2 3 cbr 100 ------- 1 0.0 3.0 9 9
+ 0.52 0 2 cbr 100 ------- 1 0.0 3.0 20 20
- 0.52 0 2 cbr 100 ------- 1 0.0 3.0 20 20
r 0.520533 0 2 cbr 100 ------- 1 0.0 3.0 10 10
+ 0.520533 2 3 cbr 100 ------- 1 0.0 3.0 10 10
- 0.520533 2 3 cbr 100 ------- 1 0.0 3.0 10 10
r 0.520914 2 3 cbr 100 ------- 1 0.0 3.0 0 0
+ 0.521 0 2 cbr 100 ------- 1 0.0 3.0 21 21
- 0.521 0 2 cbr 100 ------- 1 0.0 3.0 21 21
r 0.521533 0 2 cbr 100 ------- 1 0.0 3.0 11 11
+ 0.521533 2 3 cbr 100 ------- 1 0.0 3.0 11 11
- 0.521533 2 3 cbr 100 ------- 1 0.0 3.0 11 11
r 0.521914 2 3 cbr 100 ------- 1 0.0 3.0 1 1
+ 0.522 0 2 cbr 100 ------- 1 0.0 3.0 22 22
- 0.522 0 2 cbr 100 ------- 1 0.0 3.0 22 22
r 0.522533 0 2 cbr 100 ------- 1 0.0 3.0 12 12
+ 0.522533 2 3 cbr 100 ------- 1 0.0 3.0 12 12
- 0.522533 2 3 cbr 100 ------- 1 0.0 3.0 12 12
r 0.522914 2 3 cbr 100 ------- 1 0.0 3.0 2 2
+ 0.523 0 2 cbr 100 ------- 1 0.0 3.0 23 23
- 0.523 0 2 cbr 100 ------- 1 0.0 3.0 23 23
r 0.523533 0 2 cbr 100 ------- 1 0.0 3.0 13 13
+ 0.523533 2 3 cbr 100 ------- 1 0.0 3.0 13 13
- 0.523533 2 3 cbr 100 ------- 1 0.0 3.0 13 13
r 0.523914 2 3 cbr 100 ------- 1 0.0 3.0 3 3
+ 0.524 0 2 cbr 100 ------- 1 0.0 3.0 24 24
- 0.524 0 2 cbr 100 ------- 1 0.0 3.0 24 24
r 0.524533 0 2 cbr 100 ------- 1 0.0 3.0 14 14
+ 0.524533 2 3 cbr 100 ------- 1 0.0 3.0 14 14
- 0.524533 2 3 cbr 100 ------- 1 0.0 3.0 14 14
r 0.524914 2 3 cbr 100 ------- 1 0.0 3.0 4 4
+ 0.525 0 2 cbr 100 ------- 1 0.0 3.0 25 25
- 0.525 0 2 cbr 100 ------- 1 0.0 3.0 25 25
r 0.525533 0 2 cbr 100 ------- 1 0.0 3.0 15 15
+ 0.525533 2 3 cbr 100 ------- 1 0.0 3.0 15 15
- 0.525533 2 3 cbr 100 ------- 1 0.0 3.0 15 15
r 0.525914 2 3 cbr 100 ------- 1 0.0 3.0 5 5
+ 0.526 0 2 cbr 100 ------- 1 0.0 3.0 26 26
- 0.526 0 2 cbr 100 ------- 1 0.0 3.0 26 26
r 0.526533 0 2 cbr 100 ------- 1 0.0 3.0 16 16
+ 0.526533 2 3 cbr 100 ------- 1 0.0 3.0 16 16
- 0.526533 2 3 cbr 100 ------- 1 0.0 3.0 16 16
r 0.526914 2 3 cbr 100 ------- 1 0.0 3.0 6 6
+ 0.527 0 2 cbr 100 ------- 1 0.0 3.0 27 27
- 0.527 0 2 cbr 100 ------- 1 0.0 3.0 27 27
r 0.527533 0 2 cbr 100 ------- 1 0.0 3.0 17 17
+ 0.527533 2 3 cbr 100 ------- 1 0.0 3.0 17 17
- 0.527533 2 3 cbr 100 ------- 1 0.0 3.0 17 17
r 0.527914 2 3 cbr 100 ------- 1 0.0 3.0 7 7
+ 0.528 0 2 cbr 100 ------- 1 0.0 3.0 28 28
- 0.528 0 2 cbr 100 ------- 1 0.0 3.0 28 28
r 0.528533 0 2 cbr 100 ------- 1 0.0 3.0 18 18
+ 0.528533 2 3 cbr 100 ------- 1 0.0 3.0 18 18
- 0.528533 2 3 cbr 100 ------- 1 0.0 3.0 18 18
r 0.528914 2 3 cbr 100 ------- 1 0.0 3.0 8 8
+ 0.529 0 2 cbr 100 ------- 1 0.0 3.0 29 29
- 0.529 0 2 cbr 100 ------- 1 0.0 3.0 29 29
r 0.529533 0 2 cbr 100 ------- 1 0.0 3.0 19 19
+ 0.529533 2 3 cbr 100 ------- 1 0.0 3.0 19 19
- 0.529533 2 3 cbr 100 ------- 1 0.0 3.0 19 19
r 0.529914 2 3 cbr 100 ------- 1 0.0 3.0 9 9
+ 0.53 0 2 cbr 100 ------- 1 0.0 3.0 30 30
- 0.53 0 2 cbr 100 ------- 1 0.0 3.0 30 30
r 0.530533 0 2 cbr 100 ------- 1 0.0 3.0 20 20
+ 0.530533 2 3 cbr 100 ------- 1 0.0 3.0 20 20
- 0.530533 2 3 cbr 100 ------- 1 0.0 3.0 20 20
r 0.530914 2 3 cbr 100 ------- 1 0.0 3.0 10 10
+ 0.531 0 2 cbr 100 ------- 1 0.0 3.0 31 31
- 0.531 0 2 cbr 100 ------- 1 0.0 3.0 31 31
r 0.531533 0 2 cbr 100 ------- 1 0.0 3.0 21 21
+ 0.531533 2 3 cbr 100 ------- 1 0.0 3.0 21 21
- 0.531533 2 3 cbr 100 ------- 1 0.0 3.0 21 21
r 0.531914 2 3 cbr 100 ------- 1 0.0 3.0 11 11
+ 0.532 0 2 cbr 100 ------- 1 0.0 3.0 32 32
- 0.532 0 2 cbr 100 ------- 1 0.0 3.0 32 32
r 0.532533 0 2 cbr 100 ------- 1 0.0 3.0 22 22
+ 0.532533 2 3 cbr 100 ------- 1 0.0 3.0 22 22
- 0.532533 2 3 cbr 100 ------- 1 0.0 3.0 22 22
r 0.532914 2 3 cbr 100 ------- 1 0.0 3.0 12 12
+ 0.533 0 2 cbr 100 ------- 1 0.0 3.0 33 33
- 0.533 0 2 cbr 100 ------- 1 0.0 3.0 33 33
r 0.533533 0 2 cbr 100 ------- 1 0.0 3.0 23 23
+ 0.533533 2 3 cbr 100 ------- 1 0.0 3.0 23 23
- 0.533533 2 3 cbr 100 ------- 1 0.0 3.0 23 23
r 0.533914 2 3 cbr 100 ------- 1 0.0 3.0 13 13
+ 0.534 0 2 cbr 100 ------- 1 0.0 3.0 34 34
- 0.534 0 2 cbr 100 ------- 1 0.0 3.0 34 34
r 0.534533 0 2 cbr 100 ------- 1 0.0 3.0 24 24
+ 0.534533 2 3 cbr 100 ------- 1 0.0 3.0 24 24
- 0.534533 2 3 cbr 100 ------- 1 0.0 3.0 24 24
r 0.534914 2 3 cbr 100 ------- 1 0.0 3.0 14 14
+ 0.535 0 2 cbr 100 ------- 1 0.0 3.0 35 35
- 0.535 0 2 cbr 100 ------- 1 0.0 3.0 35 35
r 0.535533 0 2 cbr 100 ------- 1 0.0 3.0 25 25
+ 0.535533 2 3 cbr 100 ------- 1 0.0 3.0 25 25
- 0.535533 2 3 cbr 100 ------- 1 0.0 3.0 25 25
r 0.535914 2 3 cbr 100 ------- 1 0.0 3.0 15 15
+ 0.536 0 2 cbr 100 ------- 1 0.0 3.0 36 36
- 0.536 0 2 cbr 100 ------- 1 0.0 3.0 36 36
r 0.536533 0 2 cbr 100 ------- 1 0.0 3.0 26 26
+ 0.536533 2 3 cbr 100 ------- 1 0.0 3.0 26 26
- 0.536533 2 3 cbr 100 ------- 1 0.0 3.0 26 26
r 0.536914 2 3 cbr 100 ------- 1 0.0 3.0 16 16
+ 0.537 0 2 cbr 100 ------- 1 0.0 3.0 37 37
- 0.537 0 2 cbr 100 ------- 1 0.0 3.0 37 37
r 0.537533 0 2 cbr 100 ------- 1 0.0 3.0 27 27
+ 0.537533 2 3 cbr 100 ------- 1 0.0 3.0 27 27
- 0.537533 2 3 cbr 100 ------- 1 0.0 3.0 27 27
r 0.537914 2 3 cbr 100 ------- 1 0.0 3.0 17 17
+ 0.538 0 2 cbr 100 ------- 1 0.0 3.0 38 38
- 0.538 0 2 cbr 100 ------- 1 0.0 3.0 38 38
r 0.538533 0 2 cbr 100 ------- 1 0.0 3.0 28 28
+ 0.538533 2 3 cbr 100 ------- 1 0.0 3.0 28 28
- 0.538533 2 3 cbr 100 ------- 1 0.0 3.0 28 28
r 0.538914 2 3 cbr 100 ------- 1 0.0 3.0 18 18
+ 0.539 0 2 cbr 100 ------- 1 0.0 3.0 39 39
- 0.539 0 2 cbr 100 ------- 1 0.0 3.0 39 39
r 0.539533 0 2 cbr 100 ------- 1 0.0 3.0 29 29
+ 0.539533 2 3 cbr 100 ------- 1 0.0 3.0 29 29
- 0.539533 2 3 cbr 100 ------- 1 0.0 3.0 29 29
r 0.539914 2 3 cbr 100 ------- 1 0.0 3.0 19 19
+ 0.54 0 2 cbr 100 ------- 1 0.0 3.0 40 40
- 0.54 0 2 cbr 100 ------- 1 0.0 3.0 40 40
r 0.540533 0 2 cbr 100 ------- 1 0.0 3.0 30 30
+ 0.540533 2 3 cbr 100 ------- 1 0.0 3.0 30 30
- 0.540533 2 3 cbr 100 ------- 1 0.0 3.0 30 30
r 0.540914 2 3 cbr 100 ------- 1 0.0 3.0 20 20
+ 0.541 0 2 cbr 100 ------- 1 0.0 3.0 41 41
- 0.541 0 2 cbr 100 ------- 1 0.0 3.0 41 41
r 0.541533 0 2 cbr 100 ------- 1 0.0 3.0 31 31
+ 0.541533 2 3 cbr 100 ------- 1 0.0 3.0 31 31
- 0.541533 2 3 cbr 100 ------- 1 0.0 3.0 31 31
r 0.541914 2 3 cbr 100 ------- 1 0.0 3.0 21 21
+ 0.542 0 2 cbr 100 ------- 1 0.0 3.0 42 42
- 0.542 0 2 cbr 100 ------- 1 0.0 3.0 42 42
r 0.542533 0 2 cbr 100 ------- 1 0.0 3.0 32 32
+ 0.542533 2 3 cbr 100 ------- 1 0.0 3.0 32 32
- 0.542533 2 3 cbr 100 ------- 1 0.0 3.0 32 32
r 0.542914 2 3 cbr 100 ------- 1 0.0 3.0 22 22
+ 0.543 0 2 cbr 100 ------- 1 0.0 3.0 43 43
- 0.543 0 2 cbr 100 ------- 1 0.0 3.0 43 43
r 0.543533 0 2 cbr 100 ------- 1 0.0 3.0 33 33
+ 0.543533 2 3 cbr 100 ------- 1 0.0 3.0 33 33
- 0.543533 2 3 cbr 100 ------- 1 0.0 3.0 33 33
r 0.543914 2 3 cbr 100 ------- 1 0.0 3.0 23 23
+ 0.544 0 2 cbr 100 ------- 1 0.0 3.0 44 44
- 0.544 0 2 cbr 100 ------- 1 0.0 3.0 44 44
r 0.544533 0 2 cbr 100 ------- 1 0.0 3.0 34 34
+ 0.544533 2 3 cbr 100 ------- 1 0.0 3.0 34 34
- 0.544533 2 3 cbr 100 ------- 1 0.0 3.0 34 34
r 0.544914 2 3 cbr 100 ------- 1 0.0 3.0 24 24
+ 0.545 0 2 cbr 100 ------- 1 0.0 3.0 45 45
- 0.545 0 2 cbr 100 ------- 1 0.0 3.0 45 45
r 0.545533 0 2 cbr 100 ------- 1 0.0 3.0 35 35
+ 0.545533 2 3 cbr 100 ------- 1 0.0 3.0 35 35
- 0.545533 2 3 cbr 100 ------- 1 0.0 3.0 35 35
r 0.545914 2 3 cbr 100 ------- 1 0.0 3.0 25 25
+ 0.546 0 2 cbr 100 ------- 1 0.0 3.0 46 46
- 0.546 0 2 cbr 100 ------- 1 0.0 3.0 46 46
r 0.546533 0 2 cbr 100 ------- 1 0.0 3.0 36 36
+ 0.546533 2 3 cbr 100 ------- 1 0.0 3.0 36 36
- 0.546533 2 3 cbr 100 ------- 1 0.0 3.0 36 36
r 0.546914 2 3 cbr 100 ------- 1 0.0 3.0 26 26
+ 0.547 0 2 cbr 100 ------- 1 0.0 3.0 47 47
- 0.547 0 2 cbr 100 ------- 1 0.0 3.0 47 47
r 0.547533 0 2 cbr 100 ------- 1 0.0 3.0 37 37
+ 0.547533 2 3 cbr 100 ------- 1 0.0 3.0 37 37
- 0.547533 2 3 cbr 100 ------- 1 0.0 3.0 37 37
r 0.547914 2 3 cbr 100 ------- 1 0.0 3.0 27 27
+ 0.548 0 2 cbr 100 ------- 1 0.0 3.0 48 48
- 0.548 0 2 cbr 100 ------- 1 0.0 3.0 48 48
r 0.548533 0 2 cbr 100 ------- 1 0.0 3.0 38 38
+ 0.548533 2 3 cbr 100 ------- 1 0.0 3.0 38 38
- 0.548533 2 3 cbr 100 ------- 1 0.0 3.0 38 38
r 0.548914 2 3 cbr 100 ------- 1 0.0 3.0 28 28
+ 0.549 0 2 cbr 100 ------- 1 0.0 3.0 49 49
- 0.549 0 2 cbr 100 ------- 1 0.0 3.0 49 49
r 0.549533 0 2 cbr 100 ------- 1 0.0 3.0 39 39
+ 0.549533 2 3 cbr 100 ------- 1 0.0 3.0 39 39
- 0.549533 2 3 cbr 100 ------- 1 0.0 3.0 39 39
r 0.549914 2 3 cbr 100 ------- 1 0.0 3.0 29 29
+ 0.55 0 2 cbr 100 ------- 1 0.0 3.0 50 50
- 0.55 0 2 cbr 100 ------- 1 0.0 3.0 50 50
r 0.550533 0 2 cbr 100 ------- 1 0.0 3.0 40 40
+ 0.550533 2 3 cbr 100 ------- 1 0.0 3.0 40 40
- 0.550533 2 3 cbr 100 ------- 1 0.0 3.0 40 40
r 0.550914 2 3 cbr 100 ------- 1 0.0 3.0 30 30
+ 0.551 0 2 cbr 100 ------- 1 0.0 3.0 51 51
- 0.551 0 2 cbr 100 ------- 1 0.0 3.0 51 51
r 0.551533 0 2 cbr 100 ------- 1 0.0 3.0 41 41
+ 0.551533 2 3 cbr 100 ------- 1 0.0 3.0 41 41
- 0.551533 2 3 cbr 100 ------- 1 0.0 3.0 41 41
r 0.551914 2 3 cbr 100 ------- 1 0.0 3.0 31 31
+ 0.552 0 2 cbr 100 ------- 1 0.0 3.0 52 52
- 0.552 0 2 cbr 100 ------- 1 0.0 3.0 52 52
r 0.552533 0 2 cbr 100 ------- 1 0.0 3.0 42 42
+ 0.552533 2 3 cbr 100 ------- 1 0.0 3.0 42 42
- 0.552533 2 3 cbr 100 ------- 1 0.0 3.0 42 42
r 0.552914 2 3 cbr 100 ------- 1 0.0 3.0 32 32
+ 0.553 0 2 cbr 100 ------- 1 0.0 3.0 53 53
- 0.553 0 2 cbr 100 ------- 1 0.0 3.0 53 53
r 0.553533 0 2 cbr 100 ------- 1 0.0 3.0 43 43
+ 0.553533 2 3 cbr 100 ------- 1 0.0 3.0 43 43
- 0.553533 2 3 cbr 100 ------- 1 0.0 3.0 43 43
r 0.553914 2 3 cbr 100 ------- 1 0.0 3.0 33 33
+ 0.554 0 2 cbr 100 ------- 1 0.0 3.0 54 54
- 0.554 0 2 cbr 100 ------- 1 0.0 3.0 54 54
r 0.554533 0 2 cbr 100 ------- 1 0.0 3.0 44 44
+ 0.554533 2 3 cbr 100 ------- 1 0.0 3.0 44 44
- 0.554533 2 3 cbr 100 ------- 1 0.0 3.0 44 44
r 0.554914 2 3 cbr 100 ------- 1 0.0 3.0 34 34
+ 0.555 0 2 cbr 100 ------- 1 0.0 3.0 55 55
- 0.555 0 2 cbr 100 ------- 1 0.0 3.0 55 55
r 0.555533 0 2 cbr 100 ------- 1 0.0 3.0 45 45
+ 0.555533 2 3 cbr 100 ------- 1 0.0 3.0 45 45
- 0.555533 2 3 cbr 100 ------- 1 0.0 3.0 45 45
r 0.555914 2 3 cbr 100 ------- 1 0.0 3.0 35 35
+ 0.556 0 2 cbr 100 ------- 1 0.0 3.0 56 56
- 0.556 0 2 cbr 100 ------- 1 0.0 3.0 56 56
r 0.556533 0 2 cbr 100 ------- 1 0.0 3.0 46 46
+ 0.556533 2 3 cbr 100 ------- 1 0.0 3.0 46 46
- 0.556533 2 3 cbr 100 ------- 1 0.0 3.0 46 46
r 0.556914 2 3 cbr 100 ------- 1 0.0 3.0 36 36
+ 0.557 0 2 cbr 100 ------- 1 0.0 3.0 57 57
- 0.557 0 2 cbr 100 ------- 1 0.0 3.0 57 57
r 0.557533 0 2 cbr 100 ------- 1 0.0 3.0 47 47
+ 0.557533 2 3 cbr 100 ------- 1 0.0 3.0 47 47
- 0.557533 2 3 cbr 100 ------- 1 0.0 3.0 47 47
r 0.557914 2 3 cbr 100 ------- 1 0.0 3.0 37 37
+ 0.558 0 2 cbr 100 ------- 1 0.0 3.0 58 58
- 0.558 0 2 cbr 100 ------- 1 0.0 3.0 58 58
r 0.558533 0 2 cbr 100 ------- 1 0.0 3.0 48 48
+ 0.558533 2 3 cbr 100 ------- 1 0.0 3.0 48 48
- 0.558533 2 3 cbr 100 ------- 1 0.0 3.0 48 48
r 0.558914 2 3 cbr 100 ------- 1 0.0 3.0 38 38
+ 0.559 0 2 cbr 100 ------- 1 0.0 3.0 59 59
- 0.559 0 2 cbr 100 ------- 1 0.0 3.0 59 59
r 0.559533 0 2 cbr 100 ------- 1 0.0 3.0 49 49
+ 0.559533 2 3 cbr 100 ------- 1 0.0 3.0 49 49
- 0.559533 2 3 cbr 100 ------- 1 0.0 3.0 49 49
r 0.559914 2 3 cbr 100 ------- 1 0.0 3.0 39 39
+ 0.56 0 2 cbr 100 ------- 1 0.0 3.0 60 60
- 0.56 0 2 cbr 100 ------- 1 0.0 3.0 60 60
r 0.560533 0 2 cbr 100 ------- 1 0.0 3.0 50 50
+ 0.560533 2 3 cbr 100 ------- 1 0.0 3.0 50 50
- 0.560533 2 3 cbr 100 ------- 1 0.0 3.0 50 50
r 0.560914 2 3 cbr 100 ------- 1 0.0 3.0 40 40
+ 0.561 0 2 cbr 100 ------- 1 0.0 3.0 61 61
- 0.561 0 2 cbr 100 ------- 1 0.0 3.0 61 61
r 0.561533 0 2 cbr 100 ------- 1 0.0 3.0 51 51
+ 0.561533 2 3 cbr 100 ------- 1 0.0 3.0 51 51
- 0.561533 2 3 cbr 100 ------- 1 0.0 3.0 51 51
r 0.561914 2 3 cbr 100 ------- 1 0.0 3.0 41 41
+ 0.562 0 2 cbr 100 ------- 1 0.0 3.0 62 62
- 0.562 0 2 cbr 100 ------- 1 0.0 3.0 62 62
r 0.562533 0 2 cbr 100 ------- 1 0.0 3.0 52 52
+ 0.562533 2 3 cbr 100 ------- 1 0.0 3.0 52 52
- 0.562533 2 3 cbr 100 ------- 1 0.0 3.0 52 52
r 0.562914 2 3 cbr 100 ------- 1 0.0 3.0 42 42
+ 0.563 0 2 cbr 100 ------- 1 0.0 3.0 63 63
- 0.563 0 2 cbr 100 ------- 1 0.0 3.0 63 63
r 0.563533 0 2 cbr 100 ------- 1 0.0 3.0 53 53
+ 0.563533 2 3 cbr 100 ------- 1 0.0 3.0 53 53
- 0.563533 2 3 cbr 100 ------- 1 0.0 3.0 53 53
r 0.563914 2 3 cbr 100 ------- 1 0.0 3.0 43 43
+ 0.564 0 2 cbr 100 ------- 1 0.0 3.0 64 64
- 0.564 0 2 cbr 100 ------- 1 0.0 3.0 64 64
r 0.564533 0 2 cbr 100 ------- 1 0.0 3.0 54 54
+ 0.564533 2 3 cbr 100 ------- 1 0.0 3.0 54 54
- 0.564533 2 3 cbr 100 ------- 1 0.0 3.0 54 54
r 0.564914 2 3 cbr 100 ------- 1 0.0 3.0 44 44
+ 0.565 0 2 cbr 100 ------- 1 0.0 3.0 65 65
- 0.565 0 2 cbr 100 ------- 1 0.0 3.0 65 65
r 0.565533 0 2 cbr 100 ------- 1 0.0 3.0 55 55
+ 0.565533 2 3 cbr 100 ------- 1 0.0 3.0 55 55
- 0.565533 2 3 cbr 100 ------- 1 0.0 3.0 55 55
r 0.565914 2 3 cbr 100 ------- 1 0.0 3.0 45 45
+ 0.566 0 2 cbr 100 ------- 1 0.0 3.0 66 66
- 0.566 0 2 cbr 100 ------- 1 0.0 3.0 66 66
r 0.566533 0 2 cbr 100 ------- 1 0.0 3.0 56 56
+ 0.566533 2 3 cbr 100 ------- 1 0.0 3.0 56 56
- 0.566533 2 3 cbr 100 ------- 1 0.0 3.0 56 56
r 0.566914 2 3 cbr 100 ------- 1 0.0 3.0 46 46
+ 0.567 0 2 cbr 100 ------- 1 0.0 3.0 67 67
- 0.567 0 2 cbr 100 ------- 1 0.0 3.0 67 67
r 0.567533 0 2 cbr 100 ------- 1 0.0 3.0 57 57
+ 0.567533 2 3 cbr 100 ------- 1 0.0 3.0 57 57
- 0.567533 2 3 cbr 100 ------- 1 0.0 3.0 57 57
r 0.567914 2 3 cbr 100 ------- 1 0.0 3.0 47 47
+ 0.568 0 2 cbr 100 ------- 1 0.0 3.0 68 68
- 0.568 0 2 cbr 100 ------- 1 0.0 3.0 68 68
r 0.568533 0 2 cbr 100 ------- 1 0.0 3.0 58 58
+ 0.568533 2 3 cbr 100 ------- 1 0.0 3.0 58 58
- 0.568533 2 3 cbr 100 ------- 1 0.0 3.0 58 58
r 0.568914 2 3 cbr 100 ------- 1 0.0 3.0 48 48
+ 0.569 0 2 cbr 100 ------- 1 0.0 3.0 69 69
- 0.569 0 2 cbr 100 ------- 1 0.0 3.0 69 69
r 0.569533 0 2 cbr 100 ------- 1 0.0 3.0 59 59
+ 0.569533 2 3 cbr 100 ------- 1 0.0 3.0 59 59
- 0.569533 2 3 cbr 100 ------- 1 0.0 3.0 59 59
r 0.569914 2 3 cbr 100 ------- 1 0.0 3.0 49 49
+ 0.57 0 2 cbr 100 ------- 1 0.0 3.0 70 70
- 0.57 0 2 cbr 100 ------- 1 0.0 3.0 70 70
r 0.570533 0 2 cbr 100 ------- 1 0.0 3.0 60 60
+ 0.570533 2 3 cbr 100 ------- 1 0.0 3.0 60 60
- 0.570533 2 3 cbr 100 ------- 1 0.0 3.0 60 60
r 0.570914 2 3 cbr 100 ------- 1 0.0 3.0 50 50
+ 0.571 0 2 cbr 100 ------- 1 0.0 3.0 71 71
- 0.571 0 2 cbr 100 ------- 1 0.0 3.0 71 71
r 0.571533 0 2 cbr 100 ------- 1 0.0 3.0 61 61
+ 0.571533 2 3 cbr 100 ------- 1 0.0 3.0 61 61
- 0.571533 2 3 cbr 100 ------- 1 0.0 3.0 61 61
r 0.571914 2 3 cbr 100 ------- 1 0.0 3.0 51 51
+ 0.572 0 2 cbr 100 ------- 1 0.0 3.0 72 72
- 0.572 0 2 cbr 100 ------- 1 0.0 3.0 72 72
r 0.572533 0 2 cbr 100 ------- 1 0.0 3.0 62 62
+ 0.572533 2 3 cbr 100 ------- 1 0.0 3.0 62 62
- 0.572533 2 3 cbr 100 ------- 1 0.0 3.0 62 62
r 0.572914 2 3 cbr 100 ------- 1 0.0 3.0 52 52
+ 0.573 0 2 cbr 100 ------- 1 0.0 3.0 73 73
- 0.573 0 2 cbr 100 ------- 1 0.0 3.0 73 73
r 0.573533 0 2 cbr 100 ------- 1 0.0 3.0 63 63
+ 0.573533 2 3 cbr 100 ------- 1 0.0 3.0 63 63
- 0.573533 2 3 cbr 100 ------- 1 0.0 3.0 63 63
r 0.573914 2 3 cbr 100 ------- 1 0.0 3.0 53 53
+ 0.574 0 2 cbr 100 ------- 1 0.0 3.0 74 74
- 0.574 0 2 cbr 100 ------- 1 0.0 3.0 74 74
r 0.574533 0 2 cbr 100 ------- 1 0.0 3.0 64 64
+ 0.574533 2 3 cbr 100 ------- 1 0.0 3.0 64 64
- 0.574533 2 3 cbr 100 ------- 1 0.0 3.0 64 64
r 0.574914 2 3 cbr 100 ------- 1 0.0 3.0 54 54
+ 0.575 0 2 cbr 100 ------- 1 0.0 3.0 75 75
- 0.575 0 2 cbr 100 ------- 1 0.0 3.0 75 75
r 0.575533 0 2 cbr 100 ------- 1 0.0 3.0 65 65
+ 0.575533 2 3 cbr 100 ------- 1 0.0 3.0 65 65
- 0.575533 2 3 cbr 100 ------- 1 0.0 3.0 65 65
r 0.575914 2 3 cbr 100 ------- 1 0.0 3.0 55 55
+ 0.576 0 2 cbr 100 ------- 1 0.0 3.0 76 76
- 0.576 0 2 cbr 100 ------- 1 0.0 3.0 76 76
r 0.576533 0 2 cbr 100 ------- 1 0.0 3.0 66 66
+ 0.576533 2 3 cbr 100 ------- 1 0.0 3.0 66 66
- 0.576533 2 3 cbr 100 ------- 1 0.0 3.0 66 66
r 0.576914 2 3 cbr 100 ------- 1 0.0 3.0 56 56
+ 0.577 0 2 cbr 100 ------- 1 0.0 3.0 77 77
- 0.577 0 2 cbr 100 ------- 1 0.0 3.0 77 77
r 0.577533 0 2 cbr 100 ------- 1 0.0 3.0 67 67
+ 0.577533 2 3 cbr 100 ------- 1 0.0 3.0 67 67
- 0.577533 2 3 cbr 100 ------- 1 0.0 3.0 67 67
r 0.577914 2 3 cbr 100 ------- 1 0.0 3.0 57 57
+ 0.578 0 2 cbr 100 ------- 1 0.0 3.0 78 78
- 0.578 0 2 cbr 100 ------- 1 0.0 3.0 78 78
r 0.578533 0 2 cbr 100 ------- 1 0.0 3.0 68 68
+ 0.578533 2 3 cbr 100 ------- 1 0.0 3.0 68 68
- 0.578533 2 3 cbr 100 ------- 1 0.0 3.0 68 68
r 0.578914 2 3 cbr 100 ------- 1 0.0 3.0 58 58
+ 0.579 0 2 cbr 100 ------- 1 0.0 3.0 79 79
- 0.579 0 2 cbr 100 ------- 1 0.0 3.0 79 79
r 0.579533 0 2 cbr 100 ------- 1 0.0 3.0 69 69
+ 0.579533 2 3 cbr 100 ------- 1 0.0 3.0 69 69
- 0.579533 2 3 cbr 100 ------- 1 0.0 3.0 69 69
r 0.579914 2 3 cbr 100 ------- 1 0.0 3.0 59 59
+ 0.58 0 2 cbr 100 ------- 1 0.0 3.0 80 80
- 0.58 0 2 cbr 100 ------- 1 0.0 3.0 80 80
r 0.580533 0 2 cbr 100 ------- 1 0.0 3.0 70 70
+ 0.580533 2 3 cbr 100 ------- 1 0.0 3.0 70 70
- 0.580533 2 3 cbr 100 ------- 1 0.0 3.0 70 70
r 0.580914 2 3 cbr 100 ------- 1 0.0 3.0 60 60
+ 0.581 0 2 cbr 100 ------- 1 0.0 3.0 81 81
- 0.581 0 2 cbr 100 ------- 1 0.0 3.0 81 81
r 0.581533 0 2 cbr 100 ------- 1 0.0 3.0 71 71
+ 0.581533 2 3 cbr 100 ------- 1 0.0 3.0 71 71
- 0.581533 2 3 cbr 100 ------- 1 0.0 3.0 71 71
r 0.581914 2 3 cbr 100 ------- 1 0.0 3.0 61 61
+ 0.582 0 2 cbr 100 ------- 1 0.0 3.0 82 82
- 0.582 0 2 cbr 100 ------- 1 0.0 3.0 82 82
r 0.582533 0 2 cbr 100 ------- 1 0.0 3.0 72 72
+ 0.582533 2 3 cbr 100 ------- 1 0.0 3.0 72 72
- 0.582533 2 3 cbr 100 ------- 1 0.0 3.0 72 72
r 0.582914 2 3 cbr 100 ------- 1 0.0 3.0 62 62
+ 0.583 0 2 cbr 100 ------- 1 0.0 3.0 83 83
- 0.583 0 2 cbr 100 ------- 1 0.0 3.0 83 83
r 0.583533 0 2 cbr 100 ------- 1 0.0 3.0 73 73
+ 0.583533 2 3 cbr 100 ------- 1 0.0 3.0 73 73
- 0.583533 2 3 cbr 100 ------- 1 0.0 3.0 73 73
r 0.583914 2 3 cbr 100 ------- 1 0.0 3.0 63 63
+ 0.584 0 2 cbr 100 ------- 1 0.0 3.0 84 84
- 0.584 0 2 cbr 100 ------- 1 0.0 3.0 84 84
r 0.584533 0 2 cbr 100 ------- 1 0.0 3.0 74 74
+ 0.584533 2 3 cbr 100 ------- 1 0.0 3.0 74 74
- 0.584533 2 3 cbr 100 ------- 1 0.0 3.0 74 74
r 0.584914 2 3 cbr 100 ------- 1 0.0 3.0 64 64
+ 0.585 0 2 cbr 100 ------- 1 0.0 3.0 85 85
- 0.585 0 2 cbr 100 ------- 1 0.0 3.0 85 85
r 0.585533 0 2 cbr 100 ------- 1 0.0 3.0 75 75
+ 0.585533 2 3 cbr 100 ------- 1 0.0 3.0 75 75
- 0.585533 2 3 cbr 100 ------- 1 0.0 3.0 75 75
r 0.585914 2 3 cbr 100 ------- 1 0.0 3.0 65 65
+ 0.586 0 2 cbr 100 ------- 1 0.0 3.0 86 86
- 0.586 0 2 cbr 100 ------- 1 0.0 3.0 86 86
r 0.586533 0 2 cbr 100 ------- 1 0.0 3.0 76 76
+ 0.586533 2 3 cbr 100 ------- 1 0.0 3.0 76 76
- 0.586533 2 3 cbr 100 ------- 1 0.0 3.0 76 76
r 0.586914 2 3 cbr 100 ------- 1 0.0 3.0 66 66
+ 0.587 0 2 cbr 100 ------- 1 0.0 3.0 87 87
- 0.587 0 2 cbr 100 ------- 1 0.0 3.0 87 87
r 0.587533 0 2 cbr 100 ------- 1 0.0 3.0 77 77
+ 0.587533 2 3 cbr 100 ------- 1 0.0 3.0 77 77
- 0.587533 2 3 cbr 100 ------- 1 0.0 3.0 77 77
r 0.587914 2 3 cbr 100 ------- 1 0.0 3.0 67 67
+ 0.588 0 2 cbr 100 ------- 1 0.0 3.0 88 88
- 0.588 0 2 cbr 100 ------- 1 0.0 3.0 88 88
r 0.588533 0 2 cbr 100 ------- 1 0.0 3.0 78 78
+ 0.588533 2 3 cbr 100 ------- 1 0.0 3.0 78 78
- 0.588533 2 3 cbr 100 ------- 1 0.0 3.0 78 78
r 0.588914 2 3 cbr 100 ------- 1 0.0 3.0 68 68
+ 0.589 0 2 cbr 100 ------- 1 0.0 3.0 89 89
- 0.589 0 2 cbr 100 ------- 1 0.0 3.0 89 89
r 0.589533 0 2 cbr 100 ------- 1 0.0 3.0 79 79
+ 0.589533 2 3 cbr 100 ------- 1 0.0 3.0 79 79
- 0.589533 2 3 cbr 100 ------- 1 0.0 3.0 79 79
r 0.589914 2 3 cbr 100 ------- 1 0.0 3.0 69 69
+ 0.59 0 2 cbr 100 ------- 1 0.0 3.0 90 90
- 0.59 0 2 cbr 100 ------- 1 0.0 3.0 90 90
r 0.590533 0 2 cbr 100 ------- 1 0.0 3.0 80 80
+ 0.590533 2 3 cbr 100 ------- 1 0.0 3.0 80 80
- 0.590533 2 3 cbr 100 ------- 1 0.0 3.0 80 80
r 0.590914 2 3 cbr 100 ------- 1 0.0 3.0 70 70
+ 0.591 0 2 cbr 100 ------- 1 0.0 3.0 91 91
- 0.591 0 2 cbr 100 ------- 1 0.0 3.0 91 91
r 0.591533 0 2 cbr 100 ------- 1 0.0 3.0 81 81
+ 0.591533 2 3 cbr 100 ------- 1 0.0 3.0 81 81
- 0.591533 2 3 cbr 100 ------- 1 0.0 3.0 81 81
r 0.591914 2 3 cbr 100 ------- 1 0.0 3.0 71 71
+ 0.592 0 2 cbr 100 ------- 1 0.0 3.0 92 92
- 0.592 0 2 cbr 100 ------- 1 0.0 3.0 92 92
r 0.592533 0 2 cbr 100 ------- 1 0.0 3.0 82 82
+ 0.592533 2 3 cbr 100 ------- 1 0.0 3.0 82 82
- 0.592533 2 3 cbr 100 ------- 1 0.0 3.0 82 82
r 0.592914 2 3 cbr 100 ------- 1 0.0 3.0 72 72
+ 0.593 0 2 cbr 100 ------- 1 0.0 3.0 93 93
- 0.593 0 2 cbr 100 ------- 1 0.0 3.0 93 93
r 0.593533 0 2 cbr 100 ------- 1 0.0 3.0 83 83
+ 0.593533 2 3 cbr 100 ------- 1 0.0 3.0 83 83
- 0.593533 2 3 cbr 100 ------- 1 0.0 3.0 83 83
r 0.593914 2 3 cbr 100 ------- 1 0.0 3.0 73 73
+ 0.594 0 2 cbr 100 ------- 1 0.0 3.0 94 94
- 0.594 0 2 cbr 100 ------- 1 0.0 3.0 94 94
r 0.594533 0 2 cbr 100 ------- 1 0.0 3.0 84 84
+ 0.594533 2 3 cbr 100 ------- 1 0.0 3.0 84 84
- 0.594533 2 3 cbr 100 ------- 1 0.0 3.0 84 84
r 0.594914 2 3 cbr 100 ------- 1 0.0 3.0 74 74
+ 0.595 0 2 cbr 100 ------- 1 0.0 3.0 95 95
- 0.595 0 2 cbr 100 ------- 1 0.0 3.0 95 95
r 0.595533 0 2 cbr 100 ------- 1 0.0 3.0 85 85
+ 0.595533 2 3 cbr 100 ------- 1 0.0 3.0 85 85
- 0.595533 2 3 cbr 100 ------- 1 0.0 3.0 85 85
r 0.595914 2 3 cbr 100 ------- 1 0.0 3.0 75 75
+ 0.596 0 2 cbr 100 ------- 1 0.0 3.0 96 96
- 0.596 0 2 cbr 100 ------- 1 0.0 3.0 96 96
r 0.596533 0 2 cbr 100 ------- 1 0.0 3.0 86 86
+ 0.596533 2 3 cbr 100 ------- 1 0.0 3.0 86 86
- 0.596533 2 3 cbr 100 ------- 1 0.0 3.0 86 86
r 0.596914 2 3 cbr 100 ------- 1 0.0 3.0 76 76
+ 0.597 0 2 cbr 100 ------- 1 0.0 3.0 97 97
- 0.597 0 2 cbr 100 ------- 1 0.0 3.0 97 97
r 0.597533 0 2 cbr 100 ------- 1 0.0 3.0 87 87
+ 0.597533 2 3 cbr 100 ------- 1 0.0 3.0 87 87
- 0.597533 2 3 cbr 100 ------- 1 0.0 3.0 87 87
r 0.597914 2 3 cbr 100 ------- 1 0.0 3.0 77 77
+ 0.598 0 2 cbr 100 ------- 1 0.0 3.0 98 98
- 0.598 0 2 cbr 100 ------- 1 0.0 3.0 98 98
r 0.598533 0 2 cbr 100 ------- 1 0.0 3.0 88 88
+ 0.598533 2 3 cbr 100 ------- 1 0.0 3.0 88 88
- 0.598533 2 3 cbr 100 ------- 1 0.0 3.0 88 88
r 0.598914 2 3 cbr 100 ------- 1 0.0 3.0 78 78
+ 0.599 0 2 cbr 100 ------- 1 0.0 3.0 99 99
- 0.599 0 2 cbr 100 ------- 1 0.0 3.0 99 99
r 0.599533 0 2 cbr 100 ------- 1 0.0 3.0 89 89
+ 0.599533 2 3 cbr 100 ------- 1 0.0 3.0 89 89
- 0.599533 2 3 cbr 100 ------- 1 0.0 3.0 89 89
r 0.599914 2 3 cbr 100 ------- 1 0.0 3.0 79 79
+ 0.6 0 2 cbr 100 ------- 1 0.0 3.0 100 100
- 0.6 0 2 cbr 100 ------- 1 0.0 3.0 100 100
r 0.600533 0 2 cbr 100 ------- 1 0.0 3.0 90 90
+ 0.600533 2 3 cbr 100 ------- 1 0.0 3.0 90 90
- 0.600533 2 3 cbr 100 ------- 1 0.0 3.0 90 90
r 0.600914 2 3 cbr 100 ------- 1 0.0 3.0 80 80
+ 0.601 0 2 cbr 100 ------- 1 0.0 3.0 101 101
- 0.601 0 2 cbr 100 ------- 1 0.0 3.0 101 101
r 0.601533 0 2 cbr 100 ------- 1 0.0 3.0 91 91
+ 0.601533 2 3 cbr 100 ------- 1 0.0 3.0 91 91
- 0.601533 2 3 cbr 100 ------- 1 0.0 3.0 91 91
r 0.601914 2 3 cbr 100 ------- 1 0.0 3.0 81 81
+ 0.602 0 2 cbr 100 ------- 1 0.0 3.0 102 102
- 0.602 0 2 cbr 100 ------- 1 0.0 3.0 102 102
r 0.602533 0 2 cbr 100 ------- 1 0.0 3.0 92 92
+ 0.602533 2 3 cbr 100 ------- 1 0.0 3.0 92 92
- 0.602533 2 3 cbr 100 ------- 1 0.0 3.0 92 92
r 0.602914 2 3 cbr 100 ------- 1 0.0 3.0 82 82
+ 0.603 0 2 cbr 100 ------- 1 0.0 3.0 103 103
- 0.603 0 2 cbr 100 ------- 1 0.0 3.0 103 103
r 0.603533 0 2 cbr 100 ------- 1 0.0 3.0 93 93
+ 0.603533 2 3 cbr 100 ------- 1 0.0 3.0 93 93
- 0.603533 2 3 cbr 100 ------- 1 0.0 3.0 93 93
r 0.603914 2 3 cbr 100 ------- 1 0.0 3.0 83 83
+ 0.604 0 2 cbr 100 ------- 1 0.0 3.0 104 104
- 0.604 0 2 cbr 100 ------- 1 0.0 3.0 104 104
r 0.604533 0 2 cbr 100 ------- 1 0.0 3.0 94 94
+ 0.604533 2 3 cbr 100 ------- 1 0.0 3.0 94 94
- 0.604533 2 3 cbr 100 ------- 1 0.0 3.0 94 94
r 0.604914 2 3 cbr 100 ------- 1 0.0 3.0 84 84
+ 0.605 0 2 cbr 100 ------- 1 0.0 3.0 105 105
- 0.605 0 2 cbr 100 ------- 1 0.0 3.0 105 105
r 0.605533 0 2 cbr 100 ------- 1 0.0 3.0 95 95
+ 0.605533 2 3 cbr 100 ------- 1 0.0 3.0 95 95
- 0.605533 2 3 cbr 100 ------- 1 0.0 3.0 95 95
r 0.605914 2 3 cbr 100 ------- 1 0.0 3.0 85 85
+ 0.606 0 2 cbr 100 ------- 1 0.0 3.0 106 106
- 0.606 0 2 cbr 100 ------- 1 0.0 3.0 106 106
r 0.606533 0 2 cbr 100 ------- 1 0.0 3.0 96 96
+ 0.606533 2 3 cbr 100 ------- 1 0.0 3.0 96 96
- 0.606533 2 3 cbr 100 ------- 1 0.0 3.0 96 96
r 0.606914 2 3 cbr 100 ------- 1 0.0 3.0 86 86
+ 0.607 0 2 cbr 100 ------- 1 0.0 3.0 107 107
- 0.607 0 2 cbr 100 ------- 1 0.0 3.0 107 107
r 0.607533 0 2 cbr 100 ------- 1 0.0 3.0 97 97
+ 0.607533 2 3 cbr 100 ------- 1 0.0 3.0 97 97
- 0.607533 2 3 cbr 100 ------- 1 0.0 3.0 97 97
r 0.607914 2 3 cbr 100 ------- 1 0.0 3.0 87 87
+ 0.608 0 2 cbr 100 ------- 1 0.0 3.0 108 108
- 0.608 0 2 cbr 100 ------- 1 0.0 3.0 108 108
r 0.608533 0 2 cbr 100 ------- 1 0.0 3.0 98 98
+ 0.608533 2 3 cbr 100 ------- 1 0.0 3.0 98 98
- 0.608533 2 3 cbr 100 ------- 1 0.0 3.0 98 98
r 0.608914 2 3 cbr 100 ------- 1 0.0 3.0 88 88
+ 0.609 0 2 cbr 100 ------- 1 0.0 3.0 109 109
- 0.609 0 2 cbr 100 ------- 1 0.0 3.0 109 109
r 0.609533 0 2 cbr 100 ------- 1 0.0 3.0 99 99
+ 0.609533 2 3 cbr 100 ------- 1 0.0 3.0 99 99
- 0.609533 2 3 cbr 100 ------- 1 0.0 3.0 99 99
r 0.609914 2 3 cbr 100 ------- 1 0.0 3.0 89 89
+ 0.61 0 2 cbr 100 ------- 1 0.0 3.0 110 110
- 0.61 0 2 cbr 100 ------- 1 0.0 3.0 110 110
r 0.610533 0 2 cbr 100 ------- 1 0.0 3.0 100 100
+ 0.610533 2 3 cbr 100 ------- 1 0.0 3.0 100 100
- 0.610533 2 3 cbr 100 ------- 1 0.0 3.0 100 100
r 0.610914 2 3 cbr 100 ------- 1 0.0 3.0 90 90
+ 0.611 0 2 cbr 100 ------- 1 0.0 3.0 111 111
- 0.611 0 2 cbr 100 ------- 1 0.0 3.0 111 111
r 0.611533 0 2 cbr 100 ------- 1 0.0 3.0 101 101
+ 0.611533 2 3 cbr 100 ------- 1 0.0 3.0 101 101
- 0.611533 2 3 cbr 100 ------- 1 0.0 3.0 101 101
r 0.611914 2 3 cbr 100 ------- 1 0.0 3.0 91 91
+ 0.612 0 2 cbr 100 ------- 1 0.0 3.0 112 112
- 0.612 0 2 cbr 100 ------- 1 0.0 3.0 112 112
r 0.612533 0 2 cbr 100 ------- 1 0.0 3.0 102 102
+ 0.612533 2 3 cbr 100 ------- 1 0.0 3.0 102 102
- 0.612533 2 3 cbr 100 ------- 1 0.0 3.0 102 102
r 0.612914 2 3 cbr 100 ------- 1 0.0 3.0 92 92
+ 0.613 0 2 cbr 100 ------- 1 0.0 3.0 113 113
- 0.613 0 2 cbr 100 ------- 1 0.0 3.0 113 113
r 0.613533 0 2 cbr 100 ------- 1 0.0 3.0 103 103
+ 0.613533 2 3 cbr 100 ------- 1 0.0 3.0 103 103
- 0.613533 2 3 cbr 100 ------- 1 0.0 3.0 103 103
r 0.613914 2 3 cbr 100 ------- 1 0.0 3.0 93 93
+ 0.614 0 2 cbr 100 ------- 1 0.0 3.0 114 114
- 0.614 0 2 cbr 100 ------- 1 0.0 3.0 114 114
r 0.614533 0 2 cbr 100 ------- 1 0.0 3.0 104 104
+ 0.614533 2 3 cbr 100 ------- 1 0.0 3.0 104 104
- 0.614533 2 3 cbr 100 ------- 1 0.0 3.0 104 104
r 0.614914 2 3 cbr 100 ------- 1 0.0 3.0 94 94
+ 0.615 0 2 cbr 100 ------- 1 0.0 3.0 115 115
- 0.615 0 2 cbr 100 ------- 1 0.0 3.0 115 115
r 0.615533 0 2 cbr 100 ------- 1 0.0 3.0 105 105
+ 0.615533 2 3 cbr 100 ------- 1 0.0 3.0 105 105
- 0.615533 2 3 cbr 100 ------- 1 0.0 3.0 105 105
r 0.615914 2 3 cbr 100 ------- 1 0.0 3.0 95 95
+ 0.616 0 2 cbr 100 ------- 1 0.0 3.0 116 116
- 0.616 0 2 cbr 100 ------- 1 0.0 3.0 116 116
r 0.616533 0 2 cbr 100 ------- 1 0.0 3.0 106 106
+ 0.616533 2 3 cbr 100 ------- 1 0.0 3.0 106 106
- 0.616533 2 3 cbr 100 ------- 1 0.0 3.0 106 106
r 0.616914 2 3 cbr 100 ------- 1 0.0 3.0 96 96
+ 0.617 0 2 cbr 100 ------- 1 0.0 3.0 117 117
- 0.617 0 2 cbr 100 ------- 1 0.0 3.0 117 117